 2774

    1
0.0000000000e+00 0.0000000000e+00 0.0000000000e+00
0.0000000000e+00 0.0000000000e+00 0.0000000000e+00
     1      1      1
 1  1  1     0.0000000000e+00
 1  1  2     0.0000000000e+00
 1  1  3     0.0000000000e+00
 1  2  1     0.0000000000e+00
 1  2  2     0.0000000000e+00
 1  2  3     0.0000000000e+00
 1  3  1     0.0000000000e+00
 1  3  2     0.0000000000e+00
 1  3  3     0.0000000000e+00
 2  1  1     0.0000000000e+00
 2  1  2     0.0000000000e+00
 2  1  3     0.0000000000e+00
 2  2  1     0.0000000000e+00
 2  2  2     0.0000000000e+00
 2  2  3     0.0000000000e+00
 2  3  1     0.0000000000e+00
 2  3  2     0.0000000000e+00
 2  3  3     0.0000000000e+00
 3  1  1     0.0000000000e+00
 3  1  2     0.0000000000e+00
 3  1  3     0.0000000000e+00
 3  2  1     0.0000000000e+00
 3  2  2     0.0000000000e+00
 3  2  3     0.0000000000e+00
 3  3  1     0.0000000000e+00
 3  3  2     0.0000000000e+00
 3  3  3     0.0000000000e+00

    2
0.0000000000e+00 0.0000000000e+00 0.0000000000e+00
0.0000000000e+00 0.0000000000e+00 0.0000000000e+00
     1      1      2
 1  1  1     9.2194515031e-02
 1  1  2     6.5989625821e-02
 1  1  3     6.5989625821e-02
 1  2  1     5.8422454809e-02
 1  2  2    -5.8422454809e-02
 1  2  3    -1.2148712416e-01
 1  3  1     5.8422454809e-02
 1  3  2    -1.2148712416e-01
 1  3  3    -5.8422454809e-02
 2  1  1     5.8422454809e-02
 2  1  2    -5.8422454809e-02
 2  1  3    -1.2148712416e-01
 2  2  1    -6.5989625821e-02
 2  2  2    -9.2194515031e-02
 2  2  3     6.5989625821e-02
 2  3  1    -1.2148712416e-01
 2  3  2     5.8422454809e-02
 2  3  3     5.8422454809e-02
 3  1  1     5.8422454809e-02
 3  1  2    -1.2148712416e-01
 3  1  3    -5.8422454809e-02
 3  2  1    -1.2148712416e-01
 3  2  2     5.8422454809e-02
 3  2  3     5.8422454809e-02
 3  3  1    -6.5989625821e-02
 3  3  2     6.5989625821e-02
 3  3  3    -9.2194515031e-02

    3
0.0000000000e+00 0.0000000000e+00 0.0000000000e+00
-1.9560347671e+00 0.0000000000e+00 1.9560347671e+00
     1      1      1
 1  1  1     2.7639360063e-02
 1  1  2     0.0000000000e+00
 1  1  3    -6.0614465509e-01
 1  2  1     0.0000000000e+00
 1  2  2    -1.4298135152e-01
 1  2  3     0.0000000000e+00
 1  3  1    -4.6506649896e-01
 1  3  2     0.0000000000e+00
 1  3  3     4.6506649896e-01
 2  1  1     0.0000000000e+00
 2  1  2    -1.4298135152e-01
 2  1  3     0.0000000000e+00
 2  2  1    -3.6732513930e-01
 2  2  2     0.0000000000e+00
 2  2  3     3.6732513930e-01
 2  3  1     0.0000000000e+00
 2  3  2     1.4298135152e-01
 2  3  3     0.0000000000e+00
 3  1  1    -4.6506649896e-01
 3  1  2     0.0000000000e+00
 3  1  3     4.6506649896e-01
 3  2  1     0.0000000000e+00
 3  2  2     1.4298135152e-01
 3  2  3     0.0000000000e+00
 3  3  1     6.0614465509e-01
 3  3  2     0.0000000000e+00
 3  3  3    -2.7639360063e-02

    4
0.0000000000e+00 0.0000000000e+00 0.0000000000e+00
3.9120695343e+00 0.0000000000e+00 -3.9120695343e+00
     1      1      2
 1  1  1    -9.2194515031e-02
 1  1  2     6.5989625821e-02
 1  1  3    -6.5989625821e-02
 1  2  1     5.8422454809e-02
 1  2  2     5.8422454809e-02
 1  2  3    -1.2148712416e-01
 1  3  1    -5.8422454809e-02
 1  3  2    -1.2148712416e-01
 1  3  3     5.8422454809e-02
 2  1  1     5.8422454809e-02
 2  1  2     5.8422454809e-02
 2  1  3    -1.2148712416e-01
 2  2  1     6.5989625821e-02
 2  2  2    -9.2194515031e-02
 2  2  3    -6.5989625821e-02
 2  3  1    -1.2148712416e-01
 2  3  2    -5.8422454809e-02
 2  3  3     5.8422454809e-02
 3  1  1    -5.8422454809e-02
 3  1  2    -1.2148712416e-01
 3  1  3     5.8422454809e-02
 3  2  1    -1.2148712416e-01
 3  2  2    -5.8422454809e-02
 3  2  3     5.8422454809e-02
 3  3  1     6.5989625821e-02
 3  3  2     6.5989625821e-02
 3  3  3     9.2194515031e-02

    5
0.0000000000e+00 0.0000000000e+00 0.0000000000e+00
1.9560347671e+00 0.0000000000e+00 -1.9560347671e+00
     1      1      1
 1  1  1    -2.7639360063e-02
 1  1  2     0.0000000000e+00
 1  1  3     6.0614465509e-01
 1  2  1     0.0000000000e+00
 1  2  2     1.4298135152e-01
 1  2  3     0.0000000000e+00
 1  3  1     4.6506649896e-01
 1  3  2     0.0000000000e+00
 1  3  3    -4.6506649896e-01
 2  1  1     0.0000000000e+00
 2  1  2     1.4298135152e-01
 2  1  3     0.0000000000e+00
 2  2  1     3.6732513930e-01
 2  2  2     0.0000000000e+00
 2  2  3    -3.6732513930e-01
 2  3  1     0.0000000000e+00
 2  3  2    -1.4298135152e-01
 2  3  3     0.0000000000e+00
 3  1  1     4.6506649896e-01
 3  1  2     0.0000000000e+00
 3  1  3    -4.6506649896e-01
 3  2  1     0.0000000000e+00
 3  2  2    -1.4298135152e-01
 3  2  3     0.0000000000e+00
 3  3  1    -6.0614465509e-01
 3  3  2     0.0000000000e+00
 3  3  3     2.7639360063e-02

    6
0.0000000000e+00 0.0000000000e+00 0.0000000000e+00
1.9560347671e+00 0.0000000000e+00 -1.9560347671e+00
     1      1      2
 1  1  1     0.0000000000e+00
 1  1  2     3.5451953503e-01
 1  1  3     0.0000000000e+00
 1  2  1    -2.8812422345e-01
 1  2  2     0.0000000000e+00
 1  2  3     0.0000000000e+00
 1  3  1     0.0000000000e+00
 1  3  2     0.0000000000e+00
 1  3  3     0.0000000000e+00
 2  1  1    -2.8812422345e-01
 2  1  2     0.0000000000e+00
 2  1  3     0.0000000000e+00
 2  2  1     0.0000000000e+00
 2  2  2    -1.0488806793e+01
 2  2  3     0.0000000000e+00
 2  3  1     0.0000000000e+00
 2  3  2     0.0000000000e+00
 2  3  3    -2.8812422345e-01
 3  1  1     0.0000000000e+00
 3  1  2     0.0000000000e+00
 3  1  3     0.0000000000e+00
 3  2  1     0.0000000000e+00
 3  2  2     0.0000000000e+00
 3  2  3    -2.8812422345e-01
 3  3  1     0.0000000000e+00
 3  3  2     3.5451953503e-01
 3  3  3     0.0000000000e+00

    7
0.0000000000e+00 0.0000000000e+00 0.0000000000e+00
0.0000000000e+00 1.9560347671e+00 1.9560347671e+00
     1      1      1
 1  1  1     0.0000000000e+00
 1  1  2     3.6732513930e-01
 1  1  3     3.6732513930e-01
 1  2  1     1.4298135152e-01
 1  2  2     0.0000000000e+00
 1  2  3     0.0000000000e+00
 1  3  1     1.4298135152e-01
 1  3  2     0.0000000000e+00
 1  3  3     0.0000000000e+00
 2  1  1     1.4298135152e-01
 2  1  2     0.0000000000e+00
 2  1  3     0.0000000000e+00
 2  2  1     0.0000000000e+00
 2  2  2    -2.7639360063e-02
 2  2  3    -6.0614465509e-01
 2  3  1     0.0000000000e+00
 2  3  2    -4.6506649896e-01
 2  3  3    -4.6506649896e-01
 3  1  1     1.4298135152e-01
 3  1  2     0.0000000000e+00
 3  1  3     0.0000000000e+00
 3  2  1     0.0000000000e+00
 3  2  2    -4.6506649896e-01
 3  2  3    -4.6506649896e-01
 3  3  1     0.0000000000e+00
 3  3  2    -6.0614465509e-01
 3  3  3    -2.7639360063e-02

    8
0.0000000000e+00 0.0000000000e+00 0.0000000000e+00
0.0000000000e+00 -3.9120695343e+00 -3.9120695343e+00
     1      1      2
 1  1  1     9.2194515031e-02
 1  1  2    -6.5989625821e-02
 1  1  3    -6.5989625821e-02
 1  2  1    -5.8422454809e-02
 1  2  2    -5.8422454809e-02
 1  2  3    -1.2148712416e-01
 1  3  1    -5.8422454809e-02
 1  3  2    -1.2148712416e-01
 1  3  3    -5.8422454809e-02
 2  1  1    -5.8422454809e-02
 2  1  2    -5.8422454809e-02
 2  1  3    -1.2148712416e-01
 2  2  1    -6.5989625821e-02
 2  2  2     9.2194515031e-02
 2  2  3    -6.5989625821e-02
 2  3  1    -1.2148712416e-01
 2  3  2    -5.8422454809e-02
 2  3  3    -5.8422454809e-02
 3  1  1    -5.8422454809e-02
 3  1  2    -1.2148712416e-01
 3  1  3    -5.8422454809e-02
 3  2  1    -1.2148712416e-01
 3  2  2    -5.8422454809e-02
 3  2  3    -5.8422454809e-02
 3  3  1    -6.5989625821e-02
 3  3  2    -6.5989625821e-02
 3  3  3     9.2194515031e-02

    9
0.0000000000e+00 0.0000000000e+00 0.0000000000e+00
3.9120695343e+00 1.9560347671e+00 -1.9560347671e+00
     1      1      2
 1  1  1    -5.3296193534e-02
 1  1  2    -7.1794857825e-02
 1  1  3     0.0000000000e+00
 1  2  1    -1.4340088222e-02
 1  2  2     1.4340088222e-02
 1  2  3     0.0000000000e+00
 1  3  1     0.0000000000e+00
 1  3  2     0.0000000000e+00
 1  3  3     8.0608393498e-03
 2  1  1    -1.4340088222e-02
 2  1  2     1.4340088222e-02
 2  1  3     0.0000000000e+00
 2  2  1     7.1794857825e-02
 2  2  2     5.3296193534e-02
 2  2  3     0.0000000000e+00
 2  3  1     0.0000000000e+00
 2  3  2     0.0000000000e+00
 2  3  3    -8.0608393498e-03
 3  1  1     0.0000000000e+00
 3  1  2     0.0000000000e+00
 3  1  3     8.0608393498e-03
 3  2  1     0.0000000000e+00
 3  2  2     0.0000000000e+00
 3  2  3    -8.0608393498e-03
 3  3  1     1.2765075201e-02
 3  3  2    -1.2765075201e-02
 3  3  3     0.0000000000e+00

   10
0.0000000000e+00 0.0000000000e+00 0.0000000000e+00
1.9560347671e+00 1.9560347671e+00 -2.0110032716e-16
     1      1      1
 1  1  1    -2.7639360063e-02
 1  1  2    -6.0614465509e-01
 1  1  3     0.0000000000e+00
 1  2  1    -4.6506649896e-01
 1  2  2    -4.6506649896e-01
 1  2  3     0.0000000000e+00
 1  3  1     0.0000000000e+00
 1  3  2     0.0000000000e+00
 1  3  3     1.4298135152e-01
 2  1  1    -4.6506649896e-01
 2  1  2    -4.6506649896e-01
 2  1  3     0.0000000000e+00
 2  2  1    -6.0614465509e-01
 2  2  2    -2.7639360063e-02
 2  2  3     0.0000000000e+00
 2  3  1     0.0000000000e+00
 2  3  2     0.0000000000e+00
 2  3  3     1.4298135152e-01
 3  1  1     0.0000000000e+00
 3  1  2     0.0000000000e+00
 3  1  3     1.4298135152e-01
 3  2  1     0.0000000000e+00
 3  2  2     0.0000000000e+00
 3  2  3     1.4298135152e-01
 3  3  1     3.6732513930e-01
 3  3  2     3.6732513930e-01
 3  3  3     0.0000000000e+00

   11
0.0000000000e+00 0.0000000000e+00 0.0000000000e+00
1.9560347671e+00 -3.9120695343e+00 -5.8681043014e+00
     1      1      2
 1  1  1     0.0000000000e+00
 1  1  2    -1.2765075201e-02
 1  1  3     1.2765075201e-02
 1  2  1    -8.0608393498e-03
 1  2  2     0.0000000000e+00
 1  2  3     0.0000000000e+00
 1  3  1     8.0608393498e-03
 1  3  2     0.0000000000e+00
 1  3  3     0.0000000000e+00
 2  1  1    -8.0608393498e-03
 2  1  2     0.0000000000e+00
 2  1  3     0.0000000000e+00
 2  2  1     0.0000000000e+00
 2  2  2     5.3296193534e-02
 2  2  3     7.1794857825e-02
 2  3  1     0.0000000000e+00
 2  3  2     1.4340088222e-02
 2  3  3    -1.4340088222e-02
 3  1  1     8.0608393498e-03
 3  1  2     0.0000000000e+00
 3  1  3     0.0000000000e+00
 3  2  1     0.0000000000e+00
 3  2  2     1.4340088222e-02
 3  2  3    -1.4340088222e-02
 3  3  1     0.0000000000e+00
 3  3  2    -7.1794857825e-02
 3  3  3    -5.3296193534e-02

   12
0.0000000000e+00 0.0000000000e+00 0.0000000000e+00
0.0000000000e+00 -1.9560347671e+00 -1.9560347671e+00
     1      1      1
 1  1  1     0.0000000000e+00
 1  1  2    -3.6732513930e-01
 1  1  3    -3.6732513930e-01
 1  2  1    -1.4298135152e-01
 1  2  2     0.0000000000e+00
 1  2  3     0.0000000000e+00
 1  3  1    -1.4298135152e-01
 1  3  2     0.0000000000e+00
 1  3  3     0.0000000000e+00
 2  1  1    -1.4298135152e-01
 2  1  2     0.0000000000e+00
 2  1  3     0.0000000000e+00
 2  2  1     0.0000000000e+00
 2  2  2     2.7639360063e-02
 2  2  3     6.0614465509e-01
 2  3  1     0.0000000000e+00
 2  3  2     4.6506649896e-01
 2  3  3     4.6506649896e-01
 3  1  1    -1.4298135152e-01
 3  1  2     0.0000000000e+00
 3  1  3     0.0000000000e+00
 3  2  1     0.0000000000e+00
 3  2  2     4.6506649896e-01
 3  2  3     4.6506649896e-01
 3  3  1     0.0000000000e+00
 3  3  2     6.0614465509e-01
 3  3  3     2.7639360063e-02

   13
0.0000000000e+00 0.0000000000e+00 0.0000000000e+00
0.0000000000e+00 -1.9560347671e+00 -1.9560347671e+00
     1      1      2
 1  1  1     1.0488806793e+01
 1  1  2     0.0000000000e+00
 1  1  3     0.0000000000e+00
 1  2  1     0.0000000000e+00
 1  2  2     2.8812422345e-01
 1  2  3     0.0000000000e+00
 1  3  1     0.0000000000e+00
 1  3  2     0.0000000000e+00
 1  3  3     2.8812422345e-01
 2  1  1     0.0000000000e+00
 2  1  2     2.8812422345e-01
 2  1  3     0.0000000000e+00
 2  2  1    -3.5451953503e-01
 2  2  2     0.0000000000e+00
 2  2  3     0.0000000000e+00
 2  3  1     0.0000000000e+00
 2  3  2     0.0000000000e+00
 2  3  3     0.0000000000e+00
 3  1  1     0.0000000000e+00
 3  1  2     0.0000000000e+00
 3  1  3     2.8812422345e-01
 3  2  1     0.0000000000e+00
 3  2  2     0.0000000000e+00
 3  2  3     0.0000000000e+00
 3  3  1    -3.5451953503e-01
 3  3  2     0.0000000000e+00
 3  3  3     0.0000000000e+00

   14
0.0000000000e+00 0.0000000000e+00 0.0000000000e+00
-1.9560347671e+00 -1.9560347671e+00 -4.0220065431e-16
     1      1      1
 1  1  1     2.7639360063e-02
 1  1  2     6.0614465509e-01
 1  1  3     0.0000000000e+00
 1  2  1     4.6506649896e-01
 1  2  2     4.6506649896e-01
 1  2  3     0.0000000000e+00
 1  3  1     0.0000000000e+00
 1  3  2     0.0000000000e+00
 1  3  3    -1.4298135152e-01
 2  1  1     4.6506649896e-01
 2  1  2     4.6506649896e-01
 2  1  3     0.0000000000e+00
 2  2  1     6.0614465509e-01
 2  2  2     2.7639360063e-02
 2  2  3     0.0000000000e+00
 2  3  1     0.0000000000e+00
 2  3  2     0.0000000000e+00
 2  3  3    -1.4298135152e-01
 3  1  1     0.0000000000e+00
 3  1  2     0.0000000000e+00
 3  1  3    -1.4298135152e-01
 3  2  1     0.0000000000e+00
 3  2  2     0.0000000000e+00
 3  2  3    -1.4298135152e-01
 3  3  1    -3.6732513930e-01
 3  3  2    -3.6732513930e-01
 3  3  3     0.0000000000e+00

   15
0.0000000000e+00 0.0000000000e+00 0.0000000000e+00
3.9120695343e+00 -1.9560347671e+00 -5.8681043014e+00
     1      1      2
 1  1  1    -5.3296193534e-02
 1  1  2     0.0000000000e+00
 1  1  3     7.1794857825e-02
 1  2  1     0.0000000000e+00
 1  2  2     8.0608393498e-03
 1  2  3     0.0000000000e+00
 1  3  1     1.4340088222e-02
 1  3  2     0.0000000000e+00
 1  3  3     1.4340088222e-02
 2  1  1     0.0000000000e+00
 2  1  2     8.0608393498e-03
 2  1  3     0.0000000000e+00
 2  2  1     1.2765075201e-02
 2  2  2     0.0000000000e+00
 2  2  3     1.2765075201e-02
 2  3  1     0.0000000000e+00
 2  3  2     8.0608393498e-03
 2  3  3     0.0000000000e+00
 3  1  1     1.4340088222e-02
 3  1  2     0.0000000000e+00
 3  1  3     1.4340088222e-02
 3  2  1     0.0000000000e+00
 3  2  2     8.0608393498e-03
 3  2  3     0.0000000000e+00
 3  3  1     7.1794857825e-02
 3  3  2     0.0000000000e+00
 3  3  3    -5.3296193534e-02

   16
0.0000000000e+00 0.0000000000e+00 0.0000000000e+00
1.9560347671e+00 -1.9560347671e+00 -3.9120695343e+00
     1      1      2
 1  1  1     0.0000000000e+00
 1  1  2     0.0000000000e+00
 1  1  3    -3.5451953503e-01
 1  2  1     0.0000000000e+00
 1  2  2     0.0000000000e+00
 1  2  3     0.0000000000e+00
 1  3  1     2.8812422345e-01
 1  3  2     0.0000000000e+00
 1  3  3     0.0000000000e+00
 2  1  1     0.0000000000e+00
 2  1  2     0.0000000000e+00
 2  1  3     0.0000000000e+00
 2  2  1     0.0000000000e+00
 2  2  2     0.0000000000e+00
 2  2  3    -3.5451953503e-01
 2  3  1     0.0000000000e+00
 2  3  2     2.8812422345e-01
 2  3  3     0.0000000000e+00
 3  1  1     2.8812422345e-01
 3  1  2     0.0000000000e+00
 3  1  3     0.0000000000e+00
 3  2  1     0.0000000000e+00
 3  2  2     2.8812422345e-01
 3  2  3     0.0000000000e+00
 3  3  1     0.0000000000e+00
 3  3  2     0.0000000000e+00
 3  3  3     1.0488806793e+01

   17
0.0000000000e+00 0.0000000000e+00 0.0000000000e+00
-1.9560347671e+00 1.9560347671e+00 0.0000000000e+00
     1      1      1
 1  1  1     2.7639360063e-02
 1  1  2    -6.0614465509e-01
 1  1  3     0.0000000000e+00
 1  2  1    -4.6506649896e-01
 1  2  2     4.6506649896e-01
 1  2  3     0.0000000000e+00
 1  3  1     0.0000000000e+00
 1  3  2     0.0000000000e+00
 1  3  3    -1.4298135152e-01
 2  1  1    -4.6506649896e-01
 2  1  2     4.6506649896e-01
 2  1  3     0.0000000000e+00
 2  2  1     6.0614465509e-01
 2  2  2    -2.7639360063e-02
 2  2  3     0.0000000000e+00
 2  3  1     0.0000000000e+00
 2  3  2     0.0000000000e+00
 2  3  3     1.4298135152e-01
 3  1  1     0.0000000000e+00
 3  1  2     0.0000000000e+00
 3  1  3    -1.4298135152e-01
 3  2  1     0.0000000000e+00
 3  2  2     0.0000000000e+00
 3  2  3     1.4298135152e-01
 3  3  1    -3.6732513930e-01
 3  3  2     3.6732513930e-01
 3  3  3     0.0000000000e+00

   18
0.0000000000e+00 0.0000000000e+00 0.0000000000e+00
3.9120695343e+00 -3.9120695343e+00 0.0000000000e+00
     1      1      2
 1  1  1    -9.2194515031e-02
 1  1  2    -6.5989625821e-02
 1  1  3     6.5989625821e-02
 1  2  1    -5.8422454809e-02
 1  2  2     5.8422454809e-02
 1  2  3    -1.2148712416e-01
 1  3  1     5.8422454809e-02
 1  3  2    -1.2148712416e-01
 1  3  3     5.8422454809e-02
 2  1  1    -5.8422454809e-02
 2  1  2     5.8422454809e-02
 2  1  3    -1.2148712416e-01
 2  2  1     6.5989625821e-02
 2  2  2     9.2194515031e-02
 2  2  3     6.5989625821e-02
 2  3  1    -1.2148712416e-01
 2  3  2     5.8422454809e-02
 2  3  3    -5.8422454809e-02
 3  1  1     5.8422454809e-02
 3  1  2    -1.2148712416e-01
 3  1  3     5.8422454809e-02
 3  2  1    -1.2148712416e-01
 3  2  2     5.8422454809e-02
 3  2  3    -5.8422454809e-02
 3  3  1     6.5989625821e-02
 3  3  2    -6.5989625821e-02
 3  3  3    -9.2194515031e-02

   19
0.0000000000e+00 0.0000000000e+00 0.0000000000e+00
1.9560347671e+00 1.9560347671e+00 -3.9120695343e+00
     1      1      2
 1  1  1     0.0000000000e+00
 1  1  2    -1.2765075201e-02
 1  1  3    -1.2765075201e-02
 1  2  1    -8.0608393498e-03
 1  2  2     0.0000000000e+00
 1  2  3     0.0000000000e+00
 1  3  1    -8.0608393498e-03
 1  3  2     0.0000000000e+00
 1  3  3     0.0000000000e+00
 2  1  1    -8.0608393498e-03
 2  1  2     0.0000000000e+00
 2  1  3     0.0000000000e+00
 2  2  1     0.0000000000e+00
 2  2  2     5.3296193534e-02
 2  2  3    -7.1794857825e-02
 2  3  1     0.0000000000e+00
 2  3  2    -1.4340088222e-02
 2  3  3    -1.4340088222e-02
 3  1  1    -8.0608393498e-03
 3  1  2     0.0000000000e+00
 3  1  3     0.0000000000e+00
 3  2  1     0.0000000000e+00
 3  2  2    -1.4340088222e-02
 3  2  3    -1.4340088222e-02
 3  3  1     0.0000000000e+00
 3  3  2    -7.1794857825e-02
 3  3  3     5.3296193534e-02

   20
0.0000000000e+00 0.0000000000e+00 0.0000000000e+00
2.0110032716e-16 1.9560347671e+00 -1.9560347671e+00
     1      1      1
 1  1  1     0.0000000000e+00
 1  1  2     3.6732513930e-01
 1  1  3    -3.6732513930e-01
 1  2  1     1.4298135152e-01
 1  2  2     0.0000000000e+00
 1  2  3     0.0000000000e+00
 1  3  1    -1.4298135152e-01
 1  3  2     0.0000000000e+00
 1  3  3     0.0000000000e+00
 2  1  1     1.4298135152e-01
 2  1  2     0.0000000000e+00
 2  1  3     0.0000000000e+00
 2  2  1     0.0000000000e+00
 2  2  2    -2.7639360063e-02
 2  2  3     6.0614465509e-01
 2  3  1     0.0000000000e+00
 2  3  2     4.6506649896e-01
 2  3  3    -4.6506649896e-01
 3  1  1    -1.4298135152e-01
 3  1  2     0.0000000000e+00
 3  1  3     0.0000000000e+00
 3  2  1     0.0000000000e+00
 3  2  2     4.6506649896e-01
 3  2  3    -4.6506649896e-01
 3  3  1     0.0000000000e+00
 3  3  2    -6.0614465509e-01
 3  3  3     2.7639360063e-02

   21
0.0000000000e+00 0.0000000000e+00 0.0000000000e+00
5.8681043014e+00 -3.9120695343e+00 -1.9560347671e+00
     1      1      2
 1  1  1     5.3296193534e-02
 1  1  2    -7.1794857825e-02
 1  1  3     0.0000000000e+00
 1  2  1    -1.4340088222e-02
 1  2  2    -1.4340088222e-02
 1  2  3     0.0000000000e+00
 1  3  1     0.0000000000e+00
 1  3  2     0.0000000000e+00
 1  3  3    -8.0608393498e-03
 2  1  1    -1.4340088222e-02
 2  1  2    -1.4340088222e-02
 2  1  3     0.0000000000e+00
 2  2  1    -7.1794857825e-02
 2  2  2     5.3296193534e-02
 2  2  3     0.0000000000e+00
 2  3  1     0.0000000000e+00
 2  3  2     0.0000000000e+00
 2  3  3    -8.0608393498e-03
 3  1  1     0.0000000000e+00
 3  1  2     0.0000000000e+00
 3  1  3    -8.0608393498e-03
 3  2  1     0.0000000000e+00
 3  2  2     0.0000000000e+00
 3  2  3    -8.0608393498e-03
 3  3  1    -1.2765075201e-02
 3  3  2    -1.2765075201e-02
 3  3  3     0.0000000000e+00

   22
0.0000000000e+00 0.0000000000e+00 0.0000000000e+00
-1.9560347671e+00 -1.9560347671e+00 -3.9120695343e+00
     1      1      2
 1  1  1    -5.3296193534e-02
 1  1  2     0.0000000000e+00
 1  1  3    -7.1794857825e-02
 1  2  1     0.0000000000e+00
 1  2  2     8.0608393498e-03
 1  2  3     0.0000000000e+00
 1  3  1    -1.4340088222e-02
 1  3  2     0.0000000000e+00
 1  3  3     1.4340088222e-02
 2  1  1     0.0000000000e+00
 2  1  2     8.0608393498e-03
 2  1  3     0.0000000000e+00
 2  2  1     1.2765075201e-02
 2  2  2     0.0000000000e+00
 2  2  3    -1.2765075201e-02
 2  3  1     0.0000000000e+00
 2  3  2    -8.0608393498e-03
 2  3  3     0.0000000000e+00
 3  1  1    -1.4340088222e-02
 3  1  2     0.0000000000e+00
 3  1  3     1.4340088222e-02
 3  2  1     0.0000000000e+00
 3  2  2    -8.0608393498e-03
 3  2  3     0.0000000000e+00
 3  3  1     7.1794857825e-02
 3  3  2     0.0000000000e+00
 3  3  3     5.3296193534e-02

   23
0.0000000000e+00 0.0000000000e+00 0.0000000000e+00
2.0110032716e-16 3.9120695343e+00 -2.0110032716e-16
     1      1      1
 1  1  1     0.0000000000e+00
 1  1  2     8.3531703087e-02
 1  1  3     0.0000000000e+00
 1  2  1     4.7326258611e-02
 1  2  2     0.0000000000e+00
 1  2  3     0.0000000000e+00
 1  3  1     0.0000000000e+00
 1  3  2     0.0000000000e+00
 1  3  3     0.0000000000e+00
 2  1  1     4.7326258611e-02
 2  1  2     0.0000000000e+00
 2  1  3     0.0000000000e+00
 2  2  1     0.0000000000e+00
 2  2  2    -1.9797495115e-01
 2  2  3     0.0000000000e+00
 2  3  1     0.0000000000e+00
 2  3  2     0.0000000000e+00
 2  3  3     4.7326258611e-02
 3  1  1     0.0000000000e+00
 3  1  2     0.0000000000e+00
 3  1  3     0.0000000000e+00
 3  2  1     0.0000000000e+00
 3  2  2     0.0000000000e+00
 3  2  3     4.7326258611e-02
 3  3  1     0.0000000000e+00
 3  3  2     8.3531703087e-02
 3  3  3     0.0000000000e+00

   24
0.0000000000e+00 0.0000000000e+00 0.0000000000e+00
-6.7975641047e-16 -1.9560347671e+00 -5.8681043014e+00
     1      1      2
 1  1  1     5.3296193534e-02
 1  1  2     0.0000000000e+00
 1  1  3     7.1794857825e-02
 1  2  1     0.0000000000e+00
 1  2  2    -8.0608393498e-03
 1  2  3     0.0000000000e+00
 1  3  1     1.4340088222e-02
 1  3  2     0.0000000000e+00
 1  3  3    -1.4340088222e-02
 2  1  1     0.0000000000e+00
 2  1  2    -8.0608393498e-03
 2  1  3     0.0000000000e+00
 2  2  1    -1.2765075201e-02
 2  2  2     0.0000000000e+00
 2  2  3     1.2765075201e-02
 2  3  1     0.0000000000e+00
 2  3  2     8.0608393498e-03
 2  3  3     0.0000000000e+00
 3  1  1     1.4340088222e-02
 3  1  2     0.0000000000e+00
 3  1  3    -1.4340088222e-02
 3  2  1     0.0000000000e+00
 3  2  2     8.0608393498e-03
 3  2  3     0.0000000000e+00
 3  3  1    -7.1794857825e-02
 3  3  2     0.0000000000e+00
 3  3  3    -5.3296193534e-02

   25
0.0000000000e+00 0.0000000000e+00 0.0000000000e+00
-1.9560347671e+00 -2.0110032716e-16 -1.9560347671e+00
     1      1      1
 1  1  1     2.7639360063e-02
 1  1  2     0.0000000000e+00
 1  1  3     6.0614465509e-01
 1  2  1     0.0000000000e+00
 1  2  2    -1.4298135152e-01
 1  2  3     0.0000000000e+00
 1  3  1     4.6506649896e-01
 1  3  2     0.0000000000e+00
 1  3  3     4.6506649896e-01
 2  1  1     0.0000000000e+00
 2  1  2    -1.4298135152e-01
 2  1  3     0.0000000000e+00
 2  2  1    -3.6732513930e-01
 2  2  2     0.0000000000e+00
 2  2  3    -3.6732513930e-01
 2  3  1     0.0000000000e+00
 2  3  2    -1.4298135152e-01
 2  3  3     0.0000000000e+00
 3  1  1     4.6506649896e-01
 3  1  2     0.0000000000e+00
 3  1  3     4.6506649896e-01
 3  2  1     0.0000000000e+00
 3  2  2    -1.4298135152e-01
 3  2  3     0.0000000000e+00
 3  3  1     6.0614465509e-01
 3  3  2     0.0000000000e+00
 3  3  3     2.7639360063e-02

   26
0.0000000000e+00 0.0000000000e+00 0.0000000000e+00
3.9120695343e+00 -5.8681043014e+00 -1.9560347671e+00
     1      1      2
 1  1  1    -5.3296193534e-02
 1  1  2     7.1794857825e-02
 1  1  3     0.0000000000e+00
 1  2  1     1.4340088222e-02
 1  2  2     1.4340088222e-02
 1  2  3     0.0000000000e+00
 1  3  1     0.0000000000e+00
 1  3  2     0.0000000000e+00
 1  3  3     8.0608393498e-03
 2  1  1     1.4340088222e-02
 2  1  2     1.4340088222e-02
 2  1  3     0.0000000000e+00
 2  2  1     7.1794857825e-02
 2  2  2    -5.3296193534e-02
 2  2  3     0.0000000000e+00
 2  3  1     0.0000000000e+00
 2  3  2     0.0000000000e+00
 2  3  3     8.0608393498e-03
 3  1  1     0.0000000000e+00
 3  1  2     0.0000000000e+00
 3  1  3     8.0608393498e-03
 3  2  1     0.0000000000e+00
 3  2  2     0.0000000000e+00
 3  2  3     8.0608393498e-03
 3  3  1     1.2765075201e-02
 3  3  2     1.2765075201e-02
 3  3  3     0.0000000000e+00

   27
0.0000000000e+00 0.0000000000e+00 0.0000000000e+00
-3.9120695343e+00 -2.0110032716e-16 -4.0220065431e-16
     1      1      1
 1  1  1     1.9797495115e-01
 1  1  2     0.0000000000e+00
 1  1  3     0.0000000000e+00
 1  2  1     0.0000000000e+00
 1  2  2    -4.7326258611e-02
 1  2  3     0.0000000000e+00
 1  3  1     0.0000000000e+00
 1  3  2     0.0000000000e+00
 1  3  3    -4.7326258611e-02
 2  1  1     0.0000000000e+00
 2  1  2    -4.7326258611e-02
 2  1  3     0.0000000000e+00
 2  2  1    -8.3531703087e-02
 2  2  2     0.0000000000e+00
 2  2  3     0.0000000000e+00
 2  3  1     0.0000000000e+00
 2  3  2     0.0000000000e+00
 2  3  3     0.0000000000e+00
 3  1  1     0.0000000000e+00
 3  1  2     0.0000000000e+00
 3  1  3    -4.7326258611e-02
 3  2  1     0.0000000000e+00
 3  2  2     0.0000000000e+00
 3  2  3     0.0000000000e+00
 3  3  1    -8.3531703087e-02
 3  3  2     0.0000000000e+00
 3  3  3     0.0000000000e+00

   28
0.0000000000e+00 0.0000000000e+00 0.0000000000e+00
1.9560347671e+00 -5.8681043014e+00 5.2684555247e-16
     1      1      2
 1  1  1     0.0000000000e+00
 1  1  2     1.2765075201e-02
 1  1  3     1.2765075201e-02
 1  2  1     8.0608393498e-03
 1  2  2     0.0000000000e+00
 1  2  3     0.0000000000e+00
 1  3  1     8.0608393498e-03
 1  3  2     0.0000000000e+00
 1  3  3     0.0000000000e+00
 2  1  1     8.0608393498e-03
 2  1  2     0.0000000000e+00
 2  1  3     0.0000000000e+00
 2  2  1     0.0000000000e+00
 2  2  2    -5.3296193534e-02
 2  2  3     7.1794857825e-02
 2  3  1     0.0000000000e+00
 2  3  2     1.4340088222e-02
 2  3  3     1.4340088222e-02
 3  1  1     8.0608393498e-03
 3  1  2     0.0000000000e+00
 3  1  3     0.0000000000e+00
 3  2  1     0.0000000000e+00
 3  2  2     1.4340088222e-02
 3  2  3     1.4340088222e-02
 3  3  1     0.0000000000e+00
 3  3  2     7.1794857825e-02
 3  3  3    -5.3296193534e-02

   29
0.0000000000e+00 0.0000000000e+00 0.0000000000e+00
2.0110032716e-16 -2.0110032716e-16 -3.9120695343e+00
     1      1      1
 1  1  1     0.0000000000e+00
 1  1  2     0.0000000000e+00
 1  1  3    -8.3531703087e-02
 1  2  1     0.0000000000e+00
 1  2  2     0.0000000000e+00
 1  2  3     0.0000000000e+00
 1  3  1    -4.7326258611e-02
 1  3  2     0.0000000000e+00
 1  3  3     0.0000000000e+00
 2  1  1     0.0000000000e+00
 2  1  2     0.0000000000e+00
 2  1  3     0.0000000000e+00
 2  2  1     0.0000000000e+00
 2  2  2     0.0000000000e+00
 2  2  3    -8.3531703087e-02
 2  3  1     0.0000000000e+00
 2  3  2    -4.7326258611e-02
 2  3  3     0.0000000000e+00
 3  1  1    -4.7326258611e-02
 3  1  2     0.0000000000e+00
 3  1  3     0.0000000000e+00
 3  2  1     0.0000000000e+00
 3  2  2    -4.7326258611e-02
 3  2  3     0.0000000000e+00
 3  3  1     0.0000000000e+00
 3  3  2     0.0000000000e+00
 3  3  3     1.9797495115e-01

   30
0.0000000000e+00 0.0000000000e+00 0.0000000000e+00
-6.7975641047e-16 6.7975641047e-16 -3.9120695343e+00
     1      1      2
 1  1  1     9.2194515031e-02
 1  1  2     6.5989625821e-02
 1  1  3    -6.5989625821e-02
 1  2  1     5.8422454809e-02
 1  2  2    -5.8422454809e-02
 1  2  3     1.2148712416e-01
 1  3  1    -5.8422454809e-02
 1  3  2     1.2148712416e-01
 1  3  3    -5.8422454809e-02
 2  1  1     5.8422454809e-02
 2  1  2    -5.8422454809e-02
 2  1  3     1.2148712416e-01
 2  2  1    -6.5989625821e-02
 2  2  2    -9.2194515031e-02
 2  2  3    -6.5989625821e-02
 2  3  1     1.2148712416e-01
 2  3  2    -5.8422454809e-02
 2  3  3     5.8422454809e-02
 3  1  1    -5.8422454809e-02
 3  1  2     1.2148712416e-01
 3  1  3    -5.8422454809e-02
 3  2  1     1.2148712416e-01
 3  2  2    -5.8422454809e-02
 3  2  3     5.8422454809e-02
 3  3  1    -6.5989625821e-02
 3  3  2     6.5989625821e-02
 3  3  3     9.2194515031e-02

   31
0.0000000000e+00 0.0000000000e+00 0.0000000000e+00
1.9560347671e+00 -1.9560347671e+00 0.0000000000e+00
     1      1      1
 1  1  1    -2.7639360063e-02
 1  1  2     6.0614465509e-01
 1  1  3     0.0000000000e+00
 1  2  1     4.6506649896e-01
 1  2  2    -4.6506649896e-01
 1  2  3     0.0000000000e+00
 1  3  1     0.0000000000e+00
 1  3  2     0.0000000000e+00
 1  3  3     1.4298135152e-01
 2  1  1     4.6506649896e-01
 2  1  2    -4.6506649896e-01
 2  1  3     0.0000000000e+00
 2  2  1    -6.0614465509e-01
 2  2  2     2.7639360063e-02
 2  2  3     0.0000000000e+00
 2  3  1     0.0000000000e+00
 2  3  2     0.0000000000e+00
 2  3  3    -1.4298135152e-01
 3  1  1     0.0000000000e+00
 3  1  2     0.0000000000e+00
 3  1  3     1.4298135152e-01
 3  2  1     0.0000000000e+00
 3  2  2     0.0000000000e+00
 3  2  3    -1.4298135152e-01
 3  3  1     3.6732513930e-01
 3  3  2    -3.6732513930e-01
 3  3  3     0.0000000000e+00

   32
0.0000000000e+00 0.0000000000e+00 0.0000000000e+00
1.9560347671e+00 -1.9560347671e+00 0.0000000000e+00
     1      1      2
 1  1  1     0.0000000000e+00
 1  1  2     0.0000000000e+00
 1  1  3     3.5451953503e-01
 1  2  1     0.0000000000e+00
 1  2  2     0.0000000000e+00
 1  2  3     0.0000000000e+00
 1  3  1    -2.8812422345e-01
 1  3  2     0.0000000000e+00
 1  3  3     0.0000000000e+00
 2  1  1     0.0000000000e+00
 2  1  2     0.0000000000e+00
 2  1  3     0.0000000000e+00
 2  2  1     0.0000000000e+00
 2  2  2     0.0000000000e+00
 2  2  3     3.5451953503e-01
 2  3  1     0.0000000000e+00
 2  3  2    -2.8812422345e-01
 2  3  3     0.0000000000e+00
 3  1  1    -2.8812422345e-01
 3  1  2     0.0000000000e+00
 3  1  3     0.0000000000e+00
 3  2  1     0.0000000000e+00