 1824

    1
0.0000000000e+00 0.0000000000e+00 0.0000000000e+00
0.0000000000e+00 0.0000000000e+00 0.0000000000e+00
     1      1      1
 1  1  1     0.0000000000e+00
 1  1  2     0.0000000000e+00
 1  1  3     0.0000000000e+00
 1  2  1     0.0000000000e+00
 1  2  2     0.0000000000e+00
 1  2  3     0.0000000000e+00
 1  3  1     0.0000000000e+00
 1  3  2     0.0000000000e+00
 1  3  3     0.0000000000e+00
 2  1  1     0.0000000000e+00
 2  1  2     0.0000000000e+00
 2  1  3     0.0000000000e+00
 2  2  1     0.0000000000e+00
 2  2  2     0.0000000000e+00
 2  2  3     0.0000000000e+00
 2  3  1     0.0000000000e+00
 2  3  2     0.0000000000e+00
 2  3  3     0.0000000000e+00
 3  1  1     0.0000000000e+00
 3  1  2     0.0000000000e+00
 3  1  3     0.0000000000e+00
 3  2  1     0.0000000000e+00
 3  2  2     0.0000000000e+00
 3  2  3     0.0000000000e+00
 3  3  1     0.0000000000e+00
 3  3  2     0.0000000000e+00
 3  3  3     0.0000000000e+00

    2
0.0000000000e+00 0.0000000000e+00 0.0000000000e+00
0.0000000000e+00 0.0000000000e+00 0.0000000000e+00
     1      1      3
 1  1  1     0.0000000000e+00
 1  1  2     0.0000000000e+00
 1  1  3     1.8274759319e-02
 1  2  1     0.0000000000e+00
 1  2  2     0.0000000000e+00
 1  2  3     3.3603489156e-12
 1  3  1    -2.4587055071e-02
 1  3  2    -4.5210490820e-12
 1  3  3     0.0000000000e+00
 2  1  1     0.0000000000e+00
 2  1  2     0.0000000000e+00
 2  1  3     3.3603489156e-12
 2  2  1     0.0000000000e+00
 2  2  2     0.0000000000e+00
 2  2  3     1.8274759325e-02
 2  3  1    -4.5210490820e-12
 2  3  2    -2.4587055078e-02
 2  3  3     0.0000000000e+00
 3  1  1    -2.4587055071e-02
 3  1  2    -4.5210490820e-12
 3  1  3     0.0000000000e+00
 3  2  1    -4.5210490820e-12
 3  2  2    -2.4587055078e-02
 3  2  3     0.0000000000e+00
 3  3  1     0.0000000000e+00
 3  3  2     0.0000000000e+00
 3  3  3     9.5586739469e-02

    3
0.0000000000e+00 0.0000000000e+00 0.0000000000e+00
0.0000000000e+00 0.0000000000e+00 0.0000000000e+00
     1      1      4
 1  1  1    -6.5412165392e-02
 1  1  2     8.7958870944e-01
 1  1  3    -1.1088598012e+01
 1  2  1     1.5829290008e+00
 1  2  2    -4.2787776212e-01
 1  2  3     5.9445353808e+00
 1  3  1    -1.1538493607e+01
 1  3  2     6.6421745135e+00
 1  3  3     1.1674940281e+01
 2  1  1     1.5829290008e+00
 2  1  2    -4.2787776212e-01
 2  1  3     5.9445353808e+00
 2  2  1     7.9034335737e-01
 2  2  2    -1.2981279285e+00
 2  2  3    -4.2244398111e+00
 2  3  1     6.6421745135e+00
 2  3  2    -3.8687711239e+00
 2  3  3    -6.7405299158e+00
 3  1  1    -1.1538493607e+01
 3  1  2     6.6421745135e+00
 3  1  3     1.1674940281e+01
 3  2  1     6.6421745135e+00
 3  2  2    -3.8687711239e+00
 3  2  3    -6.7405299158e+00
 3  3  1     1.1370433387e+01
 3  3  2    -6.5647227786e+00
 3  3  3    -1.2024738175e+01

    4
0.0000000000e+00 0.0000000000e+00 0.0000000000e+00
0.0000000000e+00 0.0000000000e+00 0.0000000000e+00
     1      1      6
 1  1  1    -6.5412165392e-02
 1  1  2     8.7958870944e-01
 1  1  3     1.1088598012e+01
 1  2  1     1.5829290008e+00
 1  2  2    -4.2787776212e-01
 1  2  3    -5.9445353808e+00
 1  3  1     1.1538493607e+01
 1  3  2    -6.6421745135e+00
 1  3  3     1.1674940281e+01
 2  1  1     1.5829290008e+00
 2  1  2    -4.2787776212e-01
 2  1  3    -5.9445353808e+00
 2  2  1     7.9034335737e-01
 2  2  2    -1.2981279285e+00
 2  2  3     4.2244398111e+00
 2  3  1    -6.6421745135e+00
 2  3  2     3.8687711239e+00
 2  3  3    -6.7405299158e+00
 3  1  1     1.1538493607e+01
 3  1  2    -6.6421745135e+00
 3  1  3     1.1674940281e+01
 3  2  1    -6.6421745135e+00
 3  2  2     3.8687711239e+00
 3  2  3    -6.7405299158e+00
 3  3  1     1.1370433387e+01
 3  3  2    -6.5647227786e+00
 3  3  3     1.2024738175e+01

    5
0.0000000000e+00 0.0000000000e+00 0.0000000000e+00
-3.1398346650e+00 0.0000000000e+00 0.0000000000e+00
     1      1      1
 1  1  1    -1.7102876831e-09
 1  1  2    -1.2416032593e+01
 1  1  3     0.0000000000e+00
 1  2  1     1.5574433100e+00
 1  2  2     2.4103615758e-10
 1  2  3     0.0000000000e+00
 1  3  1     0.0000000000e+00
 1  3  2     0.0000000000e+00
 1  3  3     9.2045354868e-10
 2  1  1     1.5574433100e+00
 2  1  2     2.4103615758e-10
 2  1  3     0.0000000000e+00
 2  2  1     2.4103615758e-10
 2  2  2     1.3108394036e+00
 2  2  3     0.0000000000e+00
 2  3  1     0.0000000000e+00
 2  3  2     0.0000000000e+00
 2  3  3     5.0057501451e+00
 3  1  1     0.0000000000e+00
 3  1  2     0.0000000000e+00
 3  1  3     9.2045354868e-10
 3  2  1     0.0000000000e+00
 3  2  2     0.0000000000e+00
 3  2  3     5.0057501451e+00
 3  3  1     1.8875598345e-10
 3  3  2     1.0265214284e+00
 3  3  3     0.0000000000e+00

    6
0.0000000000e+00 0.0000000000e+00 0.0000000000e+00
-3.1398346650e+00 0.0000000000e+00 0.0000000000e+00
     1      1      3
 1  1  1    -4.5675929243e-12
 1  1  2    -2.7448185232e-02
 1  1  3     4.1692539422e-02
 1  2  1     1.3040041847e-03
 1  2  2     2.3968942673e-12
 1  2  3     8.4314126959e-12
 1  3  1     2.2143252771e-02
 1  3  2     6.1834533319e-12
 1  3  3    -1.8173299921e-12
 2  1  1     1.3040041847e-03
 2  1  2     2.3968942673e-12
 2  1  3     8.4314126959e-12
 2  2  1     2.3968942673e-12
 2  2  2     1.3035154075e-02
 2  2  3     4.5852987787e-02
 2  3  1     6.1834533319e-12
 2  3  2     3.3627794100e-02
 2  3  3    -9.8832796994e-03
 3  1  1     2.2143252771e-02
 3  1  2     6.1834533319e-12
 3  1  3    -1.8173299921e-12
 3  2  1     6.1834533319e-12
 3  2  2     3.3627794100e-02
 3  2  3    -9.8832796994e-03
 3  3  1    -7.8743120202e-12
 3  3  2    -4.2823278366e-02
 3  3  3     1.2213023170e-01

    7
0.0000000000e+00 0.0000000000e+00 0.0000000000e+00
3.1398346650e+00 0.0000000000e+00 0.0000000000e+00
     1      1      4
 1  1  1     6.5412166880e-02
 1  1  2     8.7958870976e-01
 1  1  3    -1.1088598016e+01
 1  2  1     1.5829290007e+00
 1  2  2     4.2787776164e-01
 1  2  3    -5.9445353823e+00
 1  3  1    -1.1538493612e+01
 1  3  2    -6.6421745150e+00
 1  3  3    -1.1674940283e+01
 2  1  1     1.5829290007e+00
 2  1  2     4.2787776164e-01
 2  1  3    -5.9445353823e+00
 2  2  1    -7.9034335784e-01
 2  2  2    -1.2981279285e+00
 2  2  3    -4.2244398111e+00
 2  3  1    -6.6421745150e+00
 2  3  2    -3.8687711239e+00
 2  3  3    -6.7405299158e+00
 3  1  1    -1.1538493612e+01
 3  1  2    -6.6421745150e+00
 3  1  3    -1.1674940283e+01
 3  2  1    -6.6421745150e+00
 3  2  2    -3.8687711239e+00
 3  2  3    -6.7405299158e+00
 3  3  1    -1.1370433389e+01
 3  3  2    -6.5647227786e+00
 3  3  3    -1.2024738175e+01

    8
0.0000000000e+00 0.0000000000e+00 0.0000000000e+00
3.1398346650e+00 0.0000000000e+00 0.0000000000e+00
     1      1      6
 1  1  1     6.5412166880e-02
 1  1  2     8.7958870976e-01
 1  1  3     1.1088598016e+01
 1  2  1     1.5829290007e+00
 1  2  2     4.2787776164e-01
 1  2  3     5.9445353823e+00
 1  3  1     1.1538493612e+01
 1  3  2     6.6421745150e+00
 1  3  3    -1.1674940283e+01
 2  1  1     1.5829290007e+00
 2  1  2     4.2787776164e-01
 2  1  3     5.9445353823e+00
 2  2  1    -7.9034335784e-01
 2  2  2    -1.2981279285e+00
 2  2  3     4.2244398111e+00
 2  3  1     6.6421745150e+00
 2  3  2     3.8687711239e+00
 2  3  3    -6.7405299158e+00
 3  1  1     1.1538493612e+01
 3  1  2     6.6421745150e+00
 3  1  3    -1.1674940283e+01
 3  2  1     6.6421745150e+00
 3  2  2     3.8687711239e+00
 3  2  3    -6.7405299158e+00
 3  3  1    -1.1370433389e+01
 3  3  2    -6.5647227786e+00
 3  3  3     1.2024738175e+01

    9
0.0000000000e+00 0.0000000000e+00 0.0000000000e+00
-1.5699173320e+00 2.7191765840e+00 0.0000000000e+00
     1      1      1
 1  1  1     1.1623420052e+00
 1  1  2     2.2285217792e+00
 1  1  3     0.0000000000e+00
 1  2  1    -4.7582161703e+00
 1  2  2    -3.6463477016e+00
 1  2  3     0.0000000000e+00
 1  3  1     0.0000000000e+00
 1  3  2     0.0000000000e+00
 1  3  3    -4.3351067904e+00
 2  1  1    -4.7582161703e+00
 2  1  2    -3.6463477016e+00
 2  1  3     0.0000000000e+00
 2  2  1     8.4550374119e+00
 2  2  2     3.3240748157e+00
 2  2  3     0.0000000000e+00
 2  3  1     0.0000000000e+00
 2  3  2     0.0000000000e+00
 2  3  3    -2.5028750726e+00
 3  1  1     0.0000000000e+00
 3  1  2     0.0000000000e+00
 3  1  3    -4.3351067904e+00
 3  2  1     0.0000000000e+00
 3  2  2     0.0000000000e+00
 3  2  3    -2.5028750726e+00
 3  3  1    -8.8899363444e-01
 3  3  2    -5.1326071418e-01
 3  3  3     0.0000000000e+00

   10
0.0000000000e+00 0.0000000000e+00 0.0000000000e+00
-1.5699173320e+00 2.7191765840e+00 0.0000000000e+00
     1      1      3
 1  1  1    -3.0885248816e-03
 1  1  2    -4.7915648754e-04
 1  1  3     4.4812875686e-02
 1  2  1    -1.4855251192e-02
 1  2  2    -9.3295504421e-03
 1  2  3     1.8015269896e-03
 1  3  1     3.0756658762e-02
 1  3  2     4.9729522717e-03
 1  3  3     8.5591712919e-03
 2  1  1    -1.4855251192e-02
 2  1  2    -9.3295504421e-03
 2  1  3     1.8015269896e-03
 2  2  1     1.5570576011e-02
 2  2  2     7.6856720671e-03
 2  2  3     4.2732651523e-02
 2  3  1     4.9729522717e-03
 2  3  2     2.5014388108e-02
 2  3  3     4.9416398497e-03
 3  1  1     3.0756658762e-02
 3  1  2     4.9729522717e-03
 3  1  3     8.5591712919e-03
 3  2  1     4.9729522717e-03
 3  2  2     2.5014388108e-02
 3  2  3     4.9416398497e-03
 3  3  1     3.7086046936e-02
 3  3  2     2.1411639183e-02
 3  3  3     1.2213023170e-01

   11
0.0000000000e+00 0.0000000000e+00 0.0000000000e+00
1.5699173320e+00 -2.7191765840e+00 0.0000000000e+00
     1      1      4
 1  1  1     7.2304068081e-10
 1  1  2     2.2485035602e+00
 1  1  3    -7.9236070760e-01
 1  2  1     8.4182297787e-01
 1  2  2    -2.5953157104e-10
 1  2  3    -2.6700518587e-09
 1  3  1    -3.3909879444e-02
 1  3  2    -2.8268410618e-09
 1  3  3     2.4788865580e-09
 2  1  1     8.4182297787e-01
 2  1  2    -2.5953165054e-10
 2  1  3    -2.6700516937e-09
 2  2  1    -2.5953181561e-10
 2  2  2    -1.4114251237e+00
 2  2  3    -1.4520677121e+01
 2  3  1    -2.8268412157e-09
 2  3  2    -1.5373354857e+01
 2  3  3     1.3481059832e+01
 3  1  1    -3.3909879444e-02
 3  1  2    -2.8268408486e-09
 3  1  3     2.4788863575e-09
 3  2  1    -2.8268424775e-09
 3  2  2    -1.5373354857e+01
 3  2  3     1.3481059832e+01
 3  3  1     2.4142318096e-09
 3  3  2     1.3129445557e+01
 3  3  3    -1.2024738175e+01

   12
0.0000000000e+00 0.0000000000e+00 0.0000000000e+00
1.5699173320e+00 -2.7191765840e+00 0.0000000000e+00
     1      1      6
 1  1  1     7.2304068081e-10
 1  1  2     2.2485035602e+00
 1  1  3     7.9236070760e-01
 1  2  1     8.4182297787e-01
 1  2  2    -2.5953157104e-10
 1  2  3     2.6700518587e-09
 1  3  1     3.3909879444e-02
 1  3  2     2.8268410618e-09
 1  3  3     2.4788865580e-09
 2  1  1     8.4182297787e-01
 2  1  2    -2.5953165054e-10
 2  1  3     2.6700516937e-09
 2  2  1    -2.5953181561e-10
 2  2  2    -1.4114251237e+00
 2  2  3     1.4520677121e+01
 2  3  1     2.8268412157e-09
 2  3  2     1.5373354857e+01
 2  3  3     1.3481059832e+01
 3  1  1     3.3909879444e-02
 3  1  2     2.8268408486e-09
 3  1  3     2.4788863575e-09
 3  2  1     2.8268424775e-09
 3  2  2     1.5373354857e+01
 3  2  3     1.3481059832e+01
 3  3  1     2.4142318096e-09
 3  3  2     1.3129445557e+01
 3  3  3     1.2024738175e+01

   13
0.0000000000e+00 0.0000000000e+00 0.0000000000e+00
1.5699173330e+00 2.7191765840e+00 0.0000000000e+00
     1      1      1
 1  1  1    -1.1623420079e+00
 1  1  2     2.2285217819e+00
 1  1  3     0.0000000000e+00
 1  2  1    -4.7582161721e+00
 1  2  2     3.6463477028e+00
 1  2  3     0.0000000000e+00
 1  3  1     0.0000000000e+00
 1  3  2     0.0000000000e+00
 1  3  3     4.3351067895e+00
 2  1  1    -4.7582161721e+00
 2  1  2     3.6463477028e+00
 2  1  3     0.0000000000e+00
 2  2  1    -8.4550374107e+00
 2  2  2     3.3240748157e+00
 2  2  3     0.0000000000e+00
 2  3  1     0.0000000000e+00
 2  3  2     0.0000000000e+00
 2  3  3    -2.5028750726e+00
 3  1  1     0.0000000000e+00
 3  1  2     0.0000000000e+00
 3  1  3     4.3351067895e+00
 3  2  1     0.0000000000e+00
 3  2  2     0.0000000000e+00
 3  2  3    -2.5028750726e+00
 3  3  1     8.8899363425e-01
 3  3  2    -5.1326071418e-01
 3  3  3     0.0000000000e+00

   14
0.0000000000e+00 0.0000000000e+00 0.0000000000e+00
1.5699173330e+00 2.7191765840e+00 0.0000000000e+00
     1      1      3
 1  1  1     3.0885248705e-03
 1  1  2    -4.7915648068e-04
 1  1  3     4.4812875684e-02
 1  2  1    -1.4855251194e-02
 1  2  2     9.3295504449e-03
 1  2  3    -1.8015269739e-03
 1  3  1     3.0756658758e-02
 1  3  2    -4.9729522625e-03
 1  3  3    -8.5591712901e-03
 2  1  1    -1.4855251194e-02
 2  1  2     9.3295504449e-03
 2  1  3    -1.8015269739e-03
 2  2  1    -1.5570576009e-02
 2  2  2     7.6856720671e-03
 2  2  3     4.2732651523e-02
 2  3  1    -4.9729522625e-03
 2  3  2     2.5014388108e-02
 2  3  3     4.9416398497e-03
 3  1  1     3.0756658758e-02
 3  1  2    -4.9729522625e-03
 3  1  3    -8.5591712901e-03
 3  2  1    -4.9729522625e-03
 3  2  2     2.5014388108e-02
 3  2  3     4.9416398497e-03
 3  3  1    -3.7086046928e-02
 3  3  2     2.1411639183e-02
 3  3  3     1.2213023170e-01

   15
0.0000000000e+00 0.0000000000e+00 0.0000000000e+00
4.7097519970e+00 -2.7191765840e+00 0.0000000000e+00
     1      1      4
 1  1  1     0.0000000000e+00
 1  1  2     0.0000000000e+00
 1  1  3    -1.4775327774e+00
 1  2  1     0.0000000000e+00
 1  2  2     0.0000000000e+00
 1  2  3    -2.7168760909e-10
 1  3  1     8.2540209443e-01
 1  3  2     1.5177431256e-10
 1  3  3     0.0000000000e+00
 2  1  1     0.0000000000e+00
 2  1  2     0.0000000000e+00
 2  1  3    -2.7168760909e-10
 2  2  1     0.0000000000e+00
 2  2  2     0.0000000000e+00
 2  2  3    -1.4775327778e+00
 2  3  1     1.5177431256e-10
 2  3  2     8.2540209469e-01
 2  3  3     0.0000000000e+00
 3  1  1     8.2540209443e-01
 3  1  2     1.5177431256e-10
 3  1  3     0.0000000000e+00
 3  2  1     1.5177431256e-10
 3  2  2     8.2540209469e-01
 3  2  3     0.0000000000e+00
 3  3  1     0.0000000000e+00
 3  3  2     0.0000000000e+00
 3  3  3    -2.0406851397e-01

   16
0.0000000000e+00 0.0000000000e+00 0.0000000000e+00
4.7097519970e+00 -2.7191765840e+00 0.0000000000e+00
     1      1      6
 1  1  1     0.0000000000e+00
 1  1  2     0.0000000000e+00
 1  1  3     1.4775327774e+00
 1  2  1     0.0000000000e+00
 1  2  2     0.0000000000e+00
 1  2  3     2.7168752987e-10
 1  3  1    -8.2540209443e-01
 1  3  2    -1.5177421635e-10
 1  3  3     0.0000000000e+00
 2  1  1     0.0000000000e+00
 2  1  2     0.0000000000e+00
 2  1  3     2.7168752987e-10
 2  2  1     0.0000000000e+00
 2  2  2     0.0000000000e+00
 2  2  3     1.4775327778e+00
 2  3  1    -1.5177426217e-10
 2  3  2    -8.2540209469e-01
 2  3  3     0.0000000000e+00
 3  1  1    -8.2540209443e-01
 3  1  2    -1.5177422249e-10
 3  1  3     0.0000000000e+00
 3  2  1    -1.5177426831e-10
 3  2  2    -8.2540209469e-01
 3  2  3     0.0000000000e+00
 3  3  1     0.0000000000e+00
 3  3  2     0.0000000000e+00
 3  3  3     2.0406851397e-01

   17
0.0000000000e+00 0.0000000000e+00 0.0000000000e+00
0.0000000000e+00 0.0000000000e+00 -1.2578354656e+01
     1      1      5
 1  1  1     0.0000000000e+00
 1  1  2     0.0000000000e+00
 1  1  3    -1.8274759319e-02
 1  2  1     0.0000000000e+00
 1  2  2     0.0000000000e+00
 1  2  3    -3.3603479357e-12
 1  3  1     2.4587055071e-02
 1  3  2     4.5210462160e-12
 1  3  3     0.0000000000e+00
 2  1  1     0.0000000000e+00
 2  1  2     0.0000000000e+00
 2  1  3    -3.3603479357e-12
 2  2  1     0.0000000000e+00
 2  2  2     0.0000000000e+00
 2  2  3    -1.8274759325e-02
 2  3  1     4.5210475809e-12
 2  3  2     2.4587055078e-02
 2  3  3     0.0000000000e+00
 3  1  1     2.4587055071e-02
 3  1  2     4.5210463989e-12
 3  1  3     0.0000000000e+00
 3  2  1     4.5210477637e-12
 3  2  2     2.4587055078e-02
 3  2  3     0.0000000000e+00
 3  3  1     0.0000000000e+00
 3  3  2     0.0000000000e+00
 3  3  3    -9.5586739469e-02

   18
0.0000000000e+00 0.0000000000e+00 0.0000000000e+00
-3.1398346650e+00 0.0000000000e+00 -1.2578354656e+01
     1      1      5
 1  1  1    -4.5675929243e-12
 1  1  2    -2.7448185232e-02
 1  1  3    -4.1692539422e-02
 1  2  1     1.3040041847e-03
 1  2  2     2.3968942673e-12
 1  2  3    -8.4314126959e-12
 1  3  1    -2.2143252771e-02
 1  3  2    -6.1834533319e-12
 1  3  3    -1.8173299921e-12
 2  1  1     1.3040041847e-03
 2  1  2     2.3968942673e-12
 2  1  3    -8.4314126959e-12
 2  2  1     2.3968942673e-12
 2  2  2     1.3035154075e-02
 2  2  3    -4.5852987787e-02
 2  3  1    -6.1834533319e-12
 2  3  2    -3.3627794100e-02
 2  3  3    -9.8832796994e-03
 3  1  1    -2.2143252771e-02
 3  1  2    -6.1834533319e-12
 3  1  3    -1.8173299921e-12
 3  2  1    -6.1834533319e-12
 3  2  2    -3.3627794100e-02
 3  2  3    -9.8832796994e-03
 3  3  1    -7.8743120202e-12
 3  3  2    -4.2823278366e-02
 3  3  3    -1.2213023170e-01

   19
0.0000000000e+00 0.0000000000e+00 0.0000000000e+00
-1.5699173320e+00 2.7191765840e+00 -1.2578354656e+01
     1      1      5
 1  1  1    -3.0885248816e-03
 1  1  2    -4.7915648754e-04
 1  1  3    -4.4812875686e-02
 1  2  1    -1.4855251192e-02
 1  2  2    -9.3295504421e-03
 1  2  3    -1.8015269896e-03
 1  3  1    -3.0756658762e-02
 1  3  2    -4.9729522717e-03
 1  3  3     8.5591712919e-03
 2  1  1    -1.4855251192e-02
 2  1  2    -9.3295504421e-03
 2  1  3    -1.8015269896e-03
 2  2  1     1.5570576011e-02
 2  2  2     7.6856720671e-03
 2  2  3    -4.2732651523e-02
 2  3  1    -4.9729522717e-03
 2  3  2    -2.5014388108e-02
 2  3  3     4.9416398497e-03
 3  1  1    -3.0756658762e-02
 3  1  2    -4.9729522717e-03
 3  1  3     8.5591712919e-03
 3  2  1    -4.9729522717e-03
 3  2  2    -2.5014388108e-02
 3  2  3     4.9416398497e-03
 3  3  1     3.7086046936e-02
 3  3  2     2.1411639183e-02
 3  3  3    -1.2213023170e-01

   20
0.0000000000e+00 0.0000000000e+00 0.0000000000e+00
-1.5699173330e+00 -2.7191765840e+00 -1.2578354656e+01
     1      1      5
 1  1  1     3.0885248705e-03
 1  1  2    -4.7915648068e-04
 1  1  3    -4.4812875684e-02
 1  2  1    -1.4855251194e-02
 1  2  2     9.3295504449e-03
 1  2  3     1.8015269739e-03
 1  3  1    -3.0756658758e-02
 1  3  2     4.9729522625e-03
 1  3  3    -8.5591712901e-03
 2  1  1    -1.4855251194e-02
 2  1  2     9.3295504449e-03
 2  1  3     1.8015269739e-03
 2  2  1    -1.5570576009e-02
 2  2  2     7.6856720671e-03
 2  2  3    -4.2732651523e-02
 2  3  1     4.9729522625e-03
 2  3  2    -2.5014388108e-02
 2  3  3     4.9416398497e-03
 3  1  1    -3.0756658758e-02
 3  1  2     4.9729522625e-03
 3  1  3    -8.5591712901e-03
 3  2  1     4.9729522625e-03
 3  2  2    -2.5014388108e-02
 3  2  3     4.9416398497e-03
 3  3  1    -3.7086046928e-02
 3  3  2     2.1411639183e-02
 3  3  3    -1.2213023170e-01

   21
0.0000000000e+00 0.0000000000e+00 0.0000000000e+00
0.0000000000e+00 0.0000000000e+00 0.0000000000e+00
     1      3      1
 1  1  1     0.0000000000e+00
 1  1  2     0.0000000000e+00
 1  1  3    -2.4587055071e-02
 1  2  1     0.0000000000e+00
 1  2  2     0.0000000000e+00
 1  2  3    -4.5210490820e-12
 1  3  1     1.8274759319e-02
 1  3  2     3.3603489156e-12
 1  3  3     0.0000000000e+00
 2  1  1     0.0000000000e+00
 2  1  2     0.0000000000e+00
 2  1  3    -4.5210490820e-12
 2  2  1     0.0000000000e+00
 2  2  2     0.0000000000e+00
 2  2  3    -2.4587055078e-02
 2  3  1     3.3603489156e-12
 2  3  2     1.8274759325e-02
 2  3  3     0.0000000000e+00
 3  1  1    -2.4587055071e-02
 3  1  2    -4.5210490820e-12
 3  1  3     0.0000000000e+00
 3  2  1    -4.5210490820e-12
 3  2  2    -2.4587055078e-02
 3  2  3     0.0000000000e+00
 3  3  1     0.0000000000e+00
 3  3  2     0.0000000000e+00
 3  3  3     9.5586739469e-02

   22
0.0000000000e+00 0.0000000000e+00 0.0000000000e+00
0.0000000000e+00 0.0000000000e+00 0.0000000000e+00
     1      3      3
 1  1  1     0.0000000000e+00
 1  1  2     0.0000000000e+00
 1  1  3     1.3215982557e-02
 1  2  1     0.0000000000e+00
 1  2  2     0.0000000000e+00
 1  2  3     2.4301448724e-12
 1  3  1     1.3215982557e-02
 1  3  2     2.4301448724e-12
 1  3  3     0.0000000000e+00
 2  1  1     0.0000000000e+00
 2  1  2     0.0000000000e+00
 2  1  3     2.4301448724e-12
 2  2  1     0.0000000000e+00
 2  2  2     0.0000000000e+00
 2  2  3     1.3215982561e-02
 2  3  1     2.4301448724e-12
 2  3  2     1.3215982561e-02
 2  3  3     0.0000000000e+00
 3  1  1     4.1931927285e-02
 3  1  2     7.7104110605e-12
 3  1  3     0.0000000000e+00
 3  2  1     7.7104110605e-12
 3  2  2     4.1931927298e-02
 3  2  3     0.0000000000e+00
 3  3  1     0.0000000000e+00
 3  3  2     0.0000000000e+00
 3  3  3    -5.6528429231e-02

   23
0.0000000000e+00 0.0000000000e+00 0.0000000000e+00
0.0000000000e+00 0.0000000000e+00 0.0000000000e+00
     1      3      4
 1  1  1     9.5529738688e-03
 1  1  2    -6.6670528847e-03
 1  1  3    -8.2879405849e-03
 1  2  1     1.2256400386e-04
 1  2  2    -3.5146265728e-03
 1  2  3     1.8828573465e-03
 1  3  1    -3.7072246892e-03
 1  3  2    -5.3820197075e-03
 1  3  3     1.0019847727e-02
 2  1  1     2.5292174748e-03
 2  1  2     6.5381951450e-04
 2  1  3     1.8828573465e-03
 2  2  1     1.2413780928e-02
 2  2  2    -6.0154589134e-03
 2  2  3    -6.1138041950e-03
 2  3  1    -5.3820197075e-03
 2  3  2    -9.9218457411e-03
 2  3  3    -5.7849617842e-03
 3  1  1    -5.1908105536e-03
 3  1  2     7.3684618984e-03
 3  1  3     3.8049128832e-02
 3  2  1     7.3684618984e-03
 3  2  2     3.3175563638e-03
 3  2  3    -2.1967674779e-02
 3  3  1     5.5240914144e-02
 3  3  2    -3.1893356660e-02
 3  3  3    -7.4447269881e-03

   24
0.0000000000e+00 0.0000000000e+00 0.0000000000e+00
-3.1398346650e+00 0.0000000000e+00 0.0000000000e+00
     1      3      1
 1  1  1    -2.0741985526e-12
 1  1  2     9.9452067448e-03
 1  1  3     1.2394538241e-02
 1  2  1    -3.3371479021e-03
 1  2  2     2.1730207683e-12
 1  2  3     4.8747286869e-13
 1  3  1    -7.8839923466e-03
 1  3  2    -1.6108573000e-12
 1  3  3     4.7645736069e-12
 2  1  1    -1.7888280121e-02
 2  1  2     2.1730207683e-12
 2  1  3     4.8747286869e-13
 2  2  1     2.1730207683e-12
 2  2  2     1.1817651246e-02
 2  2  3     2.6510489168e-03
 2  3  1    -1.6108573000e-12
 2  3  2    -8.7604085779e-03
 2  3  3     2.5911427098e-02
 3  1  1    -3.8917053259e-03
 3  1  2     1.6196392837e-12
 3  1  3     7.8706317042e-12
 3  2  1     1.6196392837e-12
 3  2  2     8.8081680937e-03
 3  2  3     4.2803263513e-02
 3  3  1     9.5475892555e-12
 3  3  2     5.1923148506e-02
 3  3  3    -1.4275723769e-02

   25
0.0000000000e+00 0.0000000000e+00 0.0000000000e+00
-3.1398346650e+00 0.0000000000e+00 0.0000000000e+00
     1      3      3
 1  1  1     3.4991442102e-12
 1  1  2     2.4919205846e-03
 1  1  3     3.9818021701e-03
 1  2  1     1.1260044003e-02
 1  2  2    -3.5384120926e-13
 1  2  3     1.0920760559e-12
 1  3  1     2.5777721969e-03
 1  3  2     6.3232361380e-13
 1  3  3    -2.9048818991e-12
 2  1  1     5.2776123676e-03
 2  1  2    -3.5384120926e-13
 2  1  3     1.0920760559e-12
 2  2  1    -3.5384120926e-13
 2  2  2    -1.9243129511e-03
 2  2  3     5.9390937032e-03
 2  3  1     6.3232361380e-13
 2  3  2     3.4387982165e-03
 2  3  3    -1.5797769489e-02
 3  1  1    -1.6390035267e-02
 3  1  2     1.2366742110e-12
 3  1  3    -2.0657304281e-12
 3  2  1     1.2366742110e-12
 3  2  2     6.7254693297e-03
 3  2  3    -1.1234168639e-02
 3  3  1     1.1677988014e-12
 3  3  2     6.3509006270e-03
 3  3  3     8.4603060489e-03

   26
0.0000000000e+00 0.0000000000e+00 0.0000000000e+00
3.1398346650e+00 0.0000000000e+00 0.0000000000e+00
     1      3      4
 1  1  1    -9.5529738703e-03
 1  1  2    -6.6670528837e-03
 1  1  3    -8.2879405863e-03
 1  2  1     1.2256400059e-04
 1  2  2     3.5146265706e-03
 1  2  3    -1.8828573487e-03
 1  3  1    -3.7072246852e-03
 1  3  2     5.3820197039e-03
 1  3  3    -1.0019847730e-02
 2  1  1     2.5292174700e-03
 2  1  2    -6.5381951671e-04
 2  1  3    -1.8828573487e-03
 2  2  1    -1.2413780930e-02
 2  2  2    -6.0154589134e-03
 2  2  3    -6.1138041950e-03
 2  3  1     5.3820197039e-03
 2  3  2    -9.9218457411e-03
 2  3  3    -5.7849617842e-03
 3  1  1    -5.1908105590e-03
 3  1  2    -7.3684618972e-03
 3  1  3    -3.8049128840e-02
 3  2  1    -7.3684618972e-03
 3  2  2     3.3175563638e-03
 3  2  3    -2.1967674779e-02
 3  3  1    -5.5240914156e-02
 3  3  2    -3.1893356660e-02
 3  3  3    -7.4447269881e-03

   27
0.0000000000e+00 0.0000000000e+00 0.0000000000e+00
-1.5699173320e+00 2.7191765840e+00 0.0000000000e+00
     1      3      1
 1  1  1    -5.2335500974e-03
 1  1  2    -1.3634305566e-02
 1  1  3     5.0869212455e-03
 1  2  1    -6.9931282447e-03
 1  2  2     1.0490868923e-02
 1  2  3    -4.2190546371e-03
 1  3  1    -8.5413045182e-03
 1  3  2    -3.7949936067e-04
 1  3  3    -2.2439954114e-02
 2  1  1     2.8243786260e-04
 2  1  2    -2.1107812345e-03
 2  1  3    -4.2190546371e-03
 2  2  1    -1.3613637783e-02
 2  2  2     2.7528765751e-03
 2  2  3     9.9586659125e-03
 2  3  1    -3.7949936067e-04
 2  3  2    -8.1030964063e-03
 2  3  3    -1.2955713549e-02
 3  1  1     5.6331997387e-03
 3  1  2     5.4992065026e-03
 3  1  3    -3.7068713565e-02
 3  2  1     5.4992065026e-03
 3  2  2    -7.1673697189e-04
 3  2  3    -2.1401631756e-02
 3  3  1    -4.4966765648e-02
 3  3  2    -2.5961574253e-02
 3  3  3    -1.4275723769e-02

   28
0.0000000000e+00 0.0000000000e+00 0.0000000000e+00
-1.5699173320e+00 2.7191765840e+00 0.0000000000e+00
     1      3      3
 1  1  1    -2.8701463386e-03
 1  1  2     6.6117484212e-03
 1  1  3     5.4497708188e-03
 1  2  1     2.2276867136e-03
 1  2  2    -3.3896141396e-05
 1  2  3     8.4753209531e-04
 1  3  1     3.2235417109e-03
 1  3  2     3.7283520321e-04
 1  3  3     1.3681269700e-02
 2  1  1     5.2189025302e-03
 2  1  2    -5.2148339146e-03
 2  1  3     8.4753209531e-04
 2  2  1     2.3785837101e-03
 2  2  2    -6.8955522414e-03
 2  2  3     4.4711250543e-03
 2  3  1     3.7283520321e-04
 2  3  2     2.7930287024e-03
 2  3  3     7.8988847447e-03
 3  1  1     9.4659318257e-04
 3  1  2     1.0009307100e-02
 3  1  3     9.7290754313e-03
 3  2  1     1.0009307100e-02
 3  2  2    -1.0611159122e-02
 3  2  3     5.6170843195e-03
 3  3  1    -5.5000412796e-03
 3  3  2    -3.1754503135e-03
 3  3  3     8.4603060489e-03

   29
0.0000000000e+00 0.0000000000e+00 0.0000000000e+00
1.5699173320e+00 -2.7191765840e+00 0.0000000000e+00
     1      3      4
 1  1  1     2.3041847829e-12
 1  1  2     1.4834246395e-02
 1  1  3    -5.0267359967e-03
 1  2  1     1.2550126221e-03
 1  2  2     1.9363893302e-12
 1  2  3    -1.7238702937e-12
 1  3  1    -1.3029156263e-02
 1  3  2    -1.1031324297e-13
 1  3  3     2.1274681701e-12
 2  1  1    -3.5582943184e-03
 2  1  2     1.9363904426e-12
 2  1  3    -1.7238702415e-12
 2  2  1     1.9363916612e-12
 2  2  2     1.0530777200e-02
 2  2  3    -9.3750087849e-03
 2  3  1    -1.1031119839e-13
 2  3  2    -5.9991416205e-04
 2  3  3     1.1569923568e-02
 3  1  1     7.5717398222e-03
 3  1  2    -1.7367374841e-12
 3  1  3     8.0787964740e-12
 3  2  1    -1.7367397134e-12
 3  2  2    -9.4449940188e-03
 3  2  3     4.3935349559e-02
 3  3  1     1.1729049156e-11
 3  3  2     6.3786713319e-02
 3  3  3    -7.4447269881e-03

   30
0.0000000000e+00 0.0000000000e+00 0.0000000000e+00
1.5699173330e+00 2.7191765840e+00 0.0000000000e+00
     1      3      1
 1  1  1     5.2335500900e-03
 1  1  2    -1.3634305569e-02
 1  1  3     5.0869212486e-03
 1  2  1    -6.9931282435e-03
 1  2  2    -1.0490868922e-02
 1  2  3     4.2190546408e-03
 1  3  1    -8.5413045179e-03
 1  3  2     3.7949935769e-04
 1  3  3     2.2439954110e-02
 2  1  1     2.8243786838e-04
 2  1  2     2.1107812355e-03
 2  1  3     4.2190546408e-03
 2  2  1     1.3613637784e-02
 2  2  2     2.7528765751e-03
 2  2  3     9.9586659125e-03
 2  3  1     3.7949935769e-04
 2  3  2    -8.1030964063e-03
 2  3  3    -1.2955713549e-02
 3  1  1     5.6331997347e-03
 3  1  2    -5.4992065029e-03
 3  1  3     3.7068713557e-02
 3  2  1    -5.4992065029e-03
 3  2  2    -7.1673697189e-04
 3  2  3    -2.1401631756e-02
 3  3  1     4.4966765639e-02
 3  3  2    -2.5961574253e-02
 3  3  3    -1.4275723769e-02

   31
0.0000000000e+00 0.0000000000e+00 0.0000000000e+00
1.5699173330e+00 2.7191765840e+00 0.0000000000e+00
     1      3      3
 1  1  1     2.8701463437e-03
 1  1  2     6.6117484232e-03
 1  1  3     5.4497708182e-03
 1  2  1     2.2276867127e-03
 1  2  2     3.3896138860e-05
 1  2  3    -8.4753209367e-04
 1  3  1     3.2235417106e-03
 1  3  2    -3.7283520218e-04
 1  3  3    -1.3681269697e-02
 2  1  1     5.2189025312e-03
 2  1  2     5.2148339121e-03
 2  1  3    -8.4753209367e-04
 2  2  1    -2.3785837127e-03
 2  2  2    -6.8955522414e-03
 2  2  3     4.4711250543e-03
 2  3  1    -3.7283520218e-04
 2  3  2     2.7930287024e-03
 2  3  3     7.8988847447e-03
 3  1  1     9.4659317520e-04
 3  1  2    -1.0009307104e-02
 3  1  3    -9.7290754292e-03
 3  2  1    -1.0009307104e-02
 3  2  2    -1.0611159122e-02
 3  2  3     5.6170843195e-03
 3  3  1     5.5000412785e-03
 3  3  2    -3.1754503135e-03
 3  3  3     8.4603060489e-03

   32
0.0000000000e+00 0.0000000000e+00 0.0000000000e+00
4.7097519970e+00 -2.7191765840e+00 0.0000000000e+00
     1      3      4
 1  1  1     0.0000000000e+00
 1  1  2     0.0000000000e+00
 1  1  3    -4.4109739575e-03
 1  2  1     0.0000000000e+00
 1  2  2     0.0000000000e+00
 1  2  3    -8.1108655364e-13
 1  3  1     5.3523630299e-03
 1  3  2     9.8418846396e-13
 1  3  3     0.0000000000e+00
 2  1  1     0.0000000000e+00
 2  1  2     0.0000000000e+00
 2  1  3    -8.1108655364e-13
 2  2  1     0.0000000000e+00
 2  2  2     0.0000000000e+00
 2  2  3    -4.4109739588e-03
 2  3  1     9.8418846396e-13
 2  3  2     5.3523630316e-03
 2  3  3     0.0000000000e+00
 3  1  1    -7.5138496584e-03
 3  1  2    -1.3816409897e-12
 3  1  3     0.0000000000e+00
 3  2  1    -1.3816409897e-12
 3  2  2    -7.5138496607e-03