 1824

    1
0.0000000000e+00 0.0000000000e+00 0.0000000000e+00
0.0000000000e+00 0.0000000000e+00 0.0000000000e+00
     1      1      1
 1  1  1     0.0000000000e+00
 1  1  2     0.0000000000e+00
 1  1  3     0.0000000000e+00
 1  2  1     0.0000000000e+00
 1  2  2     0.0000000000e+00
 1  2  3     0.0000000000e+00
 1  3  1     0.0000000000e+00
 1  3  2     0.0000000000e+00
 1  3  3     0.0000000000e+00
 2  1  1     0.0000000000e+00
 2  1  2     0.0000000000e+00
 2  1  3     0.0000000000e+00
 2  2  1     0.0000000000e+00
 2  2  2     0.0000000000e+00
 2  2  3     0.0000000000e+00
 2  3  1     0.0000000000e+00
 2  3  2     0.0000000000e+00
 2  3  3     0.0000000000e+00
 3  1  1     0.0000000000e+00
 3  1  2     0.0000000000e+00
 3  1  3     0.0000000000e+00
 3  2  1     0.0000000000e+00
 3  2  2     0.0000000000e+00
 3  2  3     0.0000000000e+00
 3  3  1     0.0000000000e+00
 3  3  2     0.0000000000e+00
 3  3  3     0.0000000000e+00

    2
0.0000000000e+00 0.0000000000e+00 0.0000000000e+00
0.0000000000e+00 0.0000000000e+00 0.0000000000e+00
     1      1      3
 1  1  1     1.5642916455e-01
 1  1  2     5.9086623033e-01
 1  1  3    -9.2938497985e+00
 1  2  1     1.2234682199e+00
 1  2  2    -3.1308987392e-01
 1  2  3     4.6084561678e+00
 1  3  1    -9.1146682315e+00
 1  3  2     5.4864137006e+00
 1  3  3     9.4299444714e+00
 2  1  1     1.2234682199e+00
 2  1  2    -3.1308987392e-01
 2  1  3     4.6084561678e+00
 2  2  1     7.8260891355e-01
 2  2  2    -1.1330201179e+00
 2  2  3    -3.9724629816e+00
 2  3  1     5.4864137006e+00
 2  3  2    -2.7795033781e+00
 2  3  3    -5.4443809793e+00
 3  1  1    -9.1146682315e+00
 3  1  2     5.4864137006e+00
 3  1  3     9.4299444714e+00
 3  2  1     5.4864137006e+00
 3  2  2    -2.7795033781e+00
 3  2  3    -5.4443809793e+00
 3  3  1     9.4895796773e+00
 3  3  2    -5.4788113814e+00
 3  3  3    -9.7298894498e+00

    3
0.0000000000e+00 0.0000000000e+00 0.0000000000e+00
0.0000000000e+00 0.0000000000e+00 0.0000000000e+00
     1      1      4
 1  1  1     0.0000000000e+00
 1  1  2     0.0000000000e+00
 1  1  3    -1.0207744155e-03
 1  2  1     0.0000000000e+00
 1  2  2     0.0000000000e+00
 1  2  3     1.7734200877e-13
 1  3  1     3.9107648841e-03
 1  3  2    -6.7942817710e-13
 1  3  3     0.0000000000e+00
 2  1  1     0.0000000000e+00
 2  1  2     0.0000000000e+00
 2  1  3     1.7734200877e-13
 2  2  1     0.0000000000e+00
 2  2  2     0.0000000000e+00
 2  2  3    -1.0207744158e-03
 2  3  1    -6.7942817710e-13
 2  3  2     3.9107648852e-03
 2  3  3     0.0000000000e+00
 3  1  1     3.9107648841e-03
 3  1  2    -6.7942817710e-13
 3  1  3     0.0000000000e+00
 3  2  1    -6.7942817710e-13
 3  2  2     3.9107648852e-03
 3  2  3     0.0000000000e+00
 3  3  1     0.0000000000e+00
 3  3  2     0.0000000000e+00
 3  3  3    -5.4138551975e-03

    4
0.0000000000e+00 0.0000000000e+00 0.0000000000e+00
0.0000000000e+00 0.0000000000e+00 0.0000000000e+00
     1      1      5
 1  1  1     1.5642916455e-01
 1  1  2     5.9086623033e-01
 1  1  3     9.2938497985e+00
 1  2  1     1.2234682199e+00
 1  2  2    -3.1308987392e-01
 1  2  3    -4.6084561678e+00
 1  3  1     9.1146682315e+00
 1  3  2    -5.4864137006e+00
 1  3  3     9.4299444714e+00
 2  1  1     1.2234682199e+00
 2  1  2    -3.1308987392e-01
 2  1  3    -4.6084561678e+00
 2  2  1     7.8260891355e-01
 2  2  2    -1.1330201179e+00
 2  2  3     3.9724629816e+00
 2  3  1    -5.4864137006e+00
 2  3  2     2.7795033781e+00
 2  3  3    -5.4443809793e+00
 3  1  1     9.1146682315e+00
 3  1  2    -5.4864137006e+00
 3  1  3     9.4299444714e+00
 3  2  1    -5.4864137006e+00
 3  2  2     2.7795033781e+00
 3  2  3    -5.4443809793e+00
 3  3  1     9.4895796773e+00
 3  3  2    -5.4788113814e+00
 3  3  3     9.7298894498e+00

    5
0.0000000000e+00 0.0000000000e+00 0.0000000000e+00
3.3232091830e+00 0.0000000000e+00 0.0000000000e+00
     1      1      1
 1  1  1     1.2631586371e-09
 1  1  2    -9.4980183211e+00
 1  1  3     0.0000000000e+00
 1  2  1     1.1136606359e+00
 1  2  2    -1.8576648176e-10
 1  2  3     0.0000000000e+00
 1  3  1     0.0000000000e+00
 1  3  2     0.0000000000e+00
 1  3  3    -5.2010133207e-10
 2  1  1     1.1136606359e+00
 2  1  2    -1.8576648176e-10
 2  1  3     0.0000000000e+00
 2  2  1    -1.8576648176e-10
 2  2  2     1.0692653885e+00
 2  2  3     0.0000000000e+00
 2  3  1     0.0000000000e+00
 2  3  2     0.0000000000e+00
 2  3  3     2.9936851234e+00
 3  1  1     0.0000000000e+00
 3  1  2     0.0000000000e+00
 3  1  3    -5.2010133207e-10
 3  2  1     0.0000000000e+00
 3  2  2     0.0000000000e+00
 3  2  3     2.9936851234e+00
 3  3  1    -4.8197418287e-11
 3  3  2     2.7742265827e-01
 3  3  3     0.0000000000e+00

    6
0.0000000000e+00 0.0000000000e+00 0.0000000000e+00
3.3232091830e+00 0.0000000000e+00 0.0000000000e+00
     1      1      3
 1  1  1    -1.5642916561e-01
 1  1  2     5.9086623011e-01
 1  1  3    -9.2938497953e+00
 1  2  1     1.2234682201e+00
 1  2  2     3.1308987431e-01
 1  2  3    -4.6084561665e+00
 1  3  1    -9.1146682277e+00
 1  3  2    -5.4864136996e+00
 1  3  3    -9.4299444695e+00
 2  1  1     1.2234682201e+00
 2  1  2     3.1308987431e-01
 2  1  3    -4.6084561665e+00
 2  2  1    -7.8260891315e-01
 2  2  2    -1.1330201179e+00
 2  2  3    -3.9724629816e+00
 2  3  1    -5.4864136996e+00
 2  3  2    -2.7795033781e+00
 2  3  3    -5.4443809793e+00
 3  1  1    -9.1146682277e+00
 3  1  2    -5.4864136996e+00
 3  1  3    -9.4299444695e+00
 3  2  1    -5.4864136996e+00
 3  2  2    -2.7795033781e+00
 3  2  3    -5.4443809793e+00
 3  3  1    -9.4895796754e+00
 3  3  2    -5.4788113814e+00
 3  3  3    -9.7298894498e+00

    7
0.0000000000e+00 0.0000000000e+00 0.0000000000e+00
3.3232091830e+00 0.0000000000e+00 0.0000000000e+00
     1      1      4
 1  1  1    -3.9115160462e-13
 1  1  2    -1.6970775250e-03
 1  1  3    -2.0936455100e-01
 1  2  1     1.9742662579e-03
 1  2  2    -5.3726003857e-13
 1  2  3     3.7621646393e-11
 1  3  1    -1.6755423203e-03
 1  3  2     2.7320322167e-13
 1  3  3    -2.4622901001e-13
 2  1  1     1.9742662579e-03
 2  1  2    -5.3726003857e-13
 2  1  3     3.7621646393e-11
 2  2  1    -5.3726003857e-13
 2  2  2     3.0924500394e-03
 2  2  3    -2.1654888419e-01
 2  3  1     2.7320322167e-13
 2  3  2    -1.5725482131e-03
 2  3  3     1.4172855918e-03
 3  1  1    -1.6755423203e-03
 3  1  2     2.7320322167e-13
 3  1  3    -2.4622901001e-13
 3  2  1     2.7320322167e-13
 3  2  2    -1.5725482131e-03
 3  2  3     1.4172855918e-03
 3  3  1     7.9406872965e-13
 3  3  2    -4.5706319064e-03
 3  3  3    -2.2245412500e-02

    8
0.0000000000e+00 0.0000000000e+00 0.0000000000e+00
3.3232091830e+00 0.0000000000e+00 0.0000000000e+00
     1      1      5
 1  1  1    -1.5642916561e-01
 1  1  2     5.9086623011e-01
 1  1  3     9.2938497953e+00
 1  2  1     1.2234682201e+00
 1  2  2     3.1308987431e-01
 1  2  3     4.6084561665e+00
 1  3  1     9.1146682277e+00
 1  3  2     5.4864136996e+00
 1  3  3    -9.4299444695e+00
 2  1  1     1.2234682201e+00
 2  1  2     3.1308987431e-01
 2  1  3     4.6084561665e+00
 2  2  1    -7.8260891315e-01
 2  2  2    -1.1330201179e+00
 2  2  3     3.9724629816e+00
 2  3  1     5.4864136996e+00
 2  3  2     2.7795033781e+00
 2  3  3    -5.4443809793e+00
 3  1  1     9.1146682277e+00
 3  1  2     5.4864136996e+00
 3  1  3    -9.4299444695e+00
 3  2  1     5.4864136996e+00
 3  2  2     2.7795033781e+00
 3  2  3    -5.4443809793e+00
 3  3  1    -9.4895796754e+00
 3  3  2    -5.4788113814e+00
 3  3  3     9.7298894498e+00

    9
0.0000000000e+00 0.0000000000e+00 0.0000000000e+00
-1.6616045920e+00 2.8779835750e+00 0.0000000000e+00
     1      1      1
 1  1  1     8.7964384572e-01
 1  1  2     1.6215232474e+00
 1  1  3     0.0000000000e+00
 1  2  1    -3.6843162326e+00
 1  2  2    -2.7701132371e+00
 1  2  3     0.0000000000e+00
 1  3  1     0.0000000000e+00
 1  3  2     0.0000000000e+00
 1  3  3    -2.5926073672e+00
 2  1  1    -3.6843162326e+00
 2  1  2    -2.7701132371e+00
 2  1  3     0.0000000000e+00
 2  2  1     6.4198703178e+00
 2  2  2     2.5928532208e+00
 2  2  3     0.0000000000e+00
 2  3  1     0.0000000000e+00
 2  3  2     0.0000000000e+00
 2  3  3    -1.4968425617e+00
 3  1  1     0.0000000000e+00
 3  1  2     0.0000000000e+00
 3  1  3    -2.5926073672e+00
 3  2  1     0.0000000000e+00
 3  2  2     0.0000000000e+00
 3  2  3    -1.4968425617e+00
 3  3  1    -2.4025506959e-01
 3  3  2    -1.3871132914e-01
 3  3  3     0.0000000000e+00

   10
0.0000000000e+00 0.0000000000e+00 0.0000000000e+00
1.6616045920e+00 -2.8779835750e+00 0.0000000000e+00
     1      1      3
 1  1  1    -5.7483726387e-10
 1  1  2     1.9463846304e+00
 1  1  3    -1.3117695721e+00
 1  2  1     6.8118065080e-01
 1  2  2     1.4977081770e-10
 1  2  3     2.0768930790e-09
 1  3  1     3.8807904885e-01
 1  3  2     2.1338266430e-09
 1  3  3    -1.8917333547e-09
 2  1  1     6.8118065080e-01
 2  1  2     1.4977082742e-10
 2  1  3     2.0768930790e-09
 2  2  1     1.4977069955e-10
 2  2  2    -8.6207685604e-01
 2  2  3    -1.1954543209e+01
 2  3  1     2.1338266430e-09
 2  3  2    -1.2282250659e+01
 2  3  3     1.0888761959e+01
 3  1  1     3.8807904885e-01
 3  1  2     2.1338266430e-09
 3  1  3    -1.8917333547e-09
 3  2  1     2.1338266430e-09
 3  2  2    -1.2282250659e+01
 3  2  3     1.0888761959e+01
 3  3  1    -1.9036967240e-09
 3  3  2     1.0957622763e+01
 3  3  3    -9.7298894498e+00

   11
0.0000000000e+00 0.0000000000e+00 0.0000000000e+00
-1.6616045920e+00 2.8779835750e+00 0.0000000000e+00
     1      1      4
 1  1  1    -2.4960595236e-03
 1  1  2     5.3316562024e-04
 1  1  3    -2.1475280084e-01
 1  2  1    -1.3025062717e-03
 1  2  2    -1.8918455022e-03
 1  2  3    -3.1109074605e-03
 1  3  1    -1.5982967396e-03
 1  3  2     4.4597757129e-05
 1  3  3    -1.2274053266e-03
 2  1  1    -1.3025062717e-03
 2  1  2    -1.8918455022e-03
 2  1  3    -3.1109074605e-03
 2  2  1     1.2876314803e-03
 2  2  2    -1.2308518767e-03
 2  2  3    -2.1116063435e-01
 2  3  1     4.4597757129e-05
 2  3  2    -1.6497937939e-03
 2  3  3    -7.0864279591e-04
 3  1  1    -1.5982967396e-03
 3  1  2     4.4597757129e-05
 3  1  3    -1.2274053266e-03
 3  2  1     4.4597757129e-05
 3  2  2    -1.6497937939e-03
 3  2  3    -7.0864279591e-04
 3  3  1     3.9582833413e-03
 3  3  2     2.2853159532e-03
 3  3  3    -2.2245412500e-02

   12
0.0000000000e+00 0.0000000000e+00 0.0000000000e+00
1.6616045920e+00 -2.8779835750e+00 0.0000000000e+00
     1      1      5
 1  1  1    -5.7483726387e-10
 1  1  2     1.9463846304e+00
 1  1  3     1.3117695721e+00
 1  2  1     6.8118065080e-01
 1  2  2     1.4977081770e-10
 1  2  3    -2.0768930790e-09
 1  3  1    -3.8807904885e-01
 1  3  2    -2.1338266430e-09
 1  3  3    -1.8917333547e-09
 2  1  1     6.8118065080e-01
 2  1  2     1.4977082742e-10
 2  1  3    -2.0768930790e-09
 2  2  1     1.4977069955e-10
 2  2  2    -8.6207685604e-01
 2  2  3     1.1954543209e+01
 2  3  1    -2.1338266430e-09
 2  3  2     1.2282250659e+01
 2  3  3     1.0888761959e+01
 3  1  1    -3.8807904885e-01
 3  1  2    -2.1338266430e-09
 3  1  3    -1.8917333547e-09
 3  2  1    -2.1338266430e-09
 3  2  2     1.2282250659e+01
 3  2  3     1.0888761959e+01
 3  3  1    -1.9036967240e-09
 3  3  2     1.0957622763e+01
 3  3  3     9.7298894498e+00

   13
0.0000000000e+00 0.0000000000e+00 0.0000000000e+00
1.6616045910e+00 2.8779835750e+00 0.0000000000e+00
     1      1      1
 1  1  1    -8.7964384372e-01
 1  1  2     1.6215232455e+00
 1  1  3     0.0000000000e+00
 1  2  1    -3.6843162314e+00
 1  2  2     2.7701132362e+00
 1  2  3     0.0000000000e+00
 1  3  1     0.0000000000e+00
 1  3  2     0.0000000000e+00
 1  3  3     2.5926073677e+00
 2  1  1    -3.6843162314e+00
 2  1  2     2.7701132362e+00
 2  1  3     0.0000000000e+00
 2  2  1    -6.4198703187e+00
 2  2  2     2.5928532208e+00
 2  2  3     0.0000000000e+00
 2  3  1     0.0000000000e+00
 2  3  2     0.0000000000e+00
 2  3  3    -1.4968425617e+00
 3  1  1     0.0000000000e+00
 3  1  2     0.0000000000e+00
 3  1  3     2.5926073677e+00
 3  2  1     0.0000000000e+00
 3  2  2     0.0000000000e+00
 3  2  3    -1.4968425617e+00
 3  3  1     2.4025506964e-01
 3  3  2    -1.3871132914e-01
 3  3  3     0.0000000000e+00

   14
0.0000000000e+00 0.0000000000e+00 0.0000000000e+00
4.9848137750e+00 -2.8779835750e+00 0.0000000000e+00
     1      1      3
 1  1  1     0.0000000000e+00
 1  1  2     0.0000000000e+00
 1  1  3    -1.6447341716e+00
 1  2  1     0.0000000000e+00
 1  2  2     0.0000000000e+00
 1  2  3     2.8574429124e-10
 1  3  1     4.9706249007e-01
 1  3  2    -8.6356063722e-11
 1  3  3     0.0000000000e+00
 2  1  1     0.0000000000e+00
 2  1  2     0.0000000000e+00
 2  1  3     2.8574429124e-10
 2  2  1     0.0000000000e+00
 2  2  2     0.0000000000e+00
 2  2  3    -1.6447341720e+00
 2  3  1    -8.6356063722e-11
 2  3  2     4.9706249022e-01
 2  3  3     0.0000000000e+00
 3  1  1     4.9706249007e-01
 3  1  2    -8.6356063722e-11
 3  1  3     0.0000000000e+00
 3  2  1    -8.6356063722e-11
 3  2  2     4.9706249022e-01
 3  2  3     0.0000000000e+00
 3  3  1     0.0000000000e+00
 3  3  2     0.0000000000e+00
 3  3  3    -3.8503628852e-01

   15
0.0000000000e+00 0.0000000000e+00 0.0000000000e+00
1.6616045910e+00 2.8779835750e+00 0.0000000000e+00
     1      1      4
 1  1  1     2.4960595243e-03
 1  1  2     5.3316561893e-04
 1  1  3    -2.1475280085e-01
 1  2  1    -1.3025062720e-03
 1  2  2     1.8918455026e-03
 1  2  3     3.1109075339e-03
 1  3  1    -1.5982967396e-03
 1  3  2    -4.4597756556e-05
 1  3  3     1.2274053269e-03
 2  1  1    -1.3025062720e-03
 2  1  2     1.8918455026e-03
 2  1  3     3.1109075339e-03
 2  2  1    -1.2876314799e-03
 2  2  2    -1.2308518767e-03
 2  2  3    -2.1116063435e-01
 2  3  1    -4.4597756556e-05
 2  3  2    -1.6497937939e-03
 2  3  3    -7.0864279591e-04
 3  1  1    -1.5982967396e-03
 3  1  2    -4.4597756556e-05
 3  1  3     1.2274053269e-03
 3  2  1    -4.4597756556e-05
 3  2  2    -1.6497937939e-03
 3  2  3    -7.0864279591e-04
 3  3  1    -3.9582833421e-03
 3  3  2     2.2853159532e-03
 3  3  3    -2.2245412500e-02

   16
0.0000000000e+00 0.0000000000e+00 0.0000000000e+00
4.9848137750e+00 -2.8779835750e+00 0.0000000000e+00
     1      1      5
 1  1  1     0.0000000000e+00
 1  1  2     0.0000000000e+00
 1  1  3     1.6447341716e+00
 1  2  1     0.0000000000e+00
 1  2  2     0.0000000000e+00
 1  2  3    -2.8574428270e-10
 1  3  1    -4.9706249007e-01
 1  3  2     8.6356061142e-11
 1  3  3     0.0000000000e+00
 2  1  1     0.0000000000e+00
 2  1  2     0.0000000000e+00
 2  1  3    -2.8574428270e-10
 2  2  1     0.0000000000e+00
 2  2  2     0.0000000000e+00
 2  2  3     1.6447341720e+00
 2  3  1     8.6356061142e-11
 2  3  2    -4.9706249022e-01
 2  3  3     0.0000000000e+00
 3  1  1    -4.9706249007e-01
 3  1  2     8.6356061142e-11
 3  1  3     0.0000000000e+00
 3  2  1     8.6356061142e-11
 3  2  2    -4.9706249022e-01
 3  2  3     0.0000000000e+00
 3  3  1     0.0000000000e+00
 3  3  2     0.0000000000e+00
 3  3  3     3.8503628852e-01

   17
0.0000000000e+00 0.0000000000e+00 0.0000000000e+00
0.0000000000e+00 0.0000000000e+00 1.5020519712e+01
     1      1      6
 1  1  1     0.0000000000e+00
 1  1  2     0.0000000000e+00
 1  1  3     1.0207744155e-03
 1  2  1     0.0000000000e+00
 1  2  2     0.0000000000e+00
 1  2  3    -1.7734200347e-13
 1  3  1    -3.9107648841e-03
 1  3  2     6.7942815680e-13
 1  3  3     0.0000000000e+00
 2  1  1     0.0000000000e+00
 2  1  2     0.0000000000e+00
 2  1  3    -1.7734200347e-13
 2  2  1     0.0000000000e+00
 2  2  2     0.0000000000e+00
 2  2  3     1.0207744158e-03
 2  3  1     6.7942815680e-13
 2  3  2    -3.9107648852e-03
 2  3  3     0.0000000000e+00
 3  1  1    -3.9107648841e-03
 3  1  2     6.7942815680e-13
 3  1  3     0.0000000000e+00
 3  2  1     6.7942815680e-13
 3  2  2    -3.9107648852e-03
 3  2  3     0.0000000000e+00
 3  3  1     0.0000000000e+00
 3  3  2     0.0000000000e+00
 3  3  3     5.4138551975e-03

   18
0.0000000000e+00 0.0000000000e+00 0.0000000000e+00
3.3232091830e+00 0.0000000000e+00 1.5020519712e+01
     1      1      6
 1  1  1    -3.9115160462e-13
 1  1  2    -1.6970775250e-03
 1  1  3     2.0936455100e-01
 1  2  1     1.9742662579e-03
 1  2  2    -5.3726003857e-13
 1  2  3    -3.7621646393e-11
 1  3  1     1.6755423203e-03
 1  3  2    -2.7320322167e-13
 1  3  3    -2.4622901001e-13
 2  1  1     1.9742662579e-03
 2  1  2    -5.3726003857e-13
 2  1  3    -3.7621646393e-11
 2  2  1    -5.3726003857e-13
 2  2  2     3.0924500394e-03
 2  2  3     2.1654888419e-01
 2  3  1    -2.7320322167e-13
 2  3  2     1.5725482131e-03
 2  3  3     1.4172855918e-03
 3  1  1     1.6755423203e-03
 3  1  2    -2.7320322167e-13
 3  1  3    -2.4622901001e-13
 3  2  1    -2.7320322167e-13
 3  2  2     1.5725482131e-03
 3  2  3     1.4172855918e-03
 3  3  1     7.9406872965e-13
 3  3  2    -4.5706319064e-03
 3  3  3     2.2245412500e-02

   19
0.0000000000e+00 0.0000000000e+00 0.0000000000e+00
-1.6616045920e+00 2.8779835750e+00 1.5020519712e+01
     1      1      6
 1  1  1    -2.4960595236e-03
 1  1  2     5.3316562024e-04
 1  1  3     2.1475280084e-01
 1  2  1    -1.3025062717e-03
 1  2  2    -1.8918455022e-03
 1  2  3     3.1109074605e-03
 1  3  1     1.5982967396e-03
 1  3  2    -4.4597757129e-05
 1  3  3    -1.2274053266e-03
 2  1  1    -1.3025062717e-03
 2  1  2    -1.8918455022e-03
 2  1  3     3.1109074605e-03
 2  2  1     1.2876314803e-03
 2  2  2    -1.2308518767e-03
 2  2  3     2.1116063435e-01
 2  3  1    -4.4597757129e-05
 2  3  2     1.6497937939e-03
 2  3  3    -7.0864279591e-04
 3  1  1     1.5982967396e-03
 3  1  2    -4.4597757129e-05
 3  1  3    -1.2274053266e-03
 3  2  1    -4.4597757129e-05
 3  2  2     1.6497937939e-03
 3  2  3    -7.0864279591e-04
 3  3  1     3.9582833413e-03
 3  3  2     2.2853159532e-03
 3  3  3     2.2245412500e-02

   20
0.0000000000e+00 0.0000000000e+00 0.0000000000e+00
1.6616045910e+00 2.8779835750e+00 1.5020519712e+01
     1      1      6
 1  1  1     2.4960595243e-03
 1  1  2     5.3316561893e-04
 1  1  3     2.1475280085e-01
 1  2  1    -1.3025062720e-03
 1  2  2     1.8918455026e-03
 1  2  3    -3.1109075339e-03
 1  3  1     1.5982967396e-03
 1  3  2     4.4597756556e-05
 1  3  3     1.2274053269e-03
 2  1  1    -1.3025062720e-03
 2  1  2     1.8918455026e-03
 2  1  3    -3.1109075339e-03
 2  2  1    -1.2876314799e-03
 2  2  2    -1.2308518767e-03
 2  2  3     2.1116063435e-01
 2  3  1     4.4597756556e-05
 2  3  2     1.6497937939e-03
 2  3  3    -7.0864279591e-04
 3  1  1     1.5982967396e-03
 3  1  2     4.4597756556e-05
 3  1  3     1.2274053269e-03
 3  2  1     4.4597756556e-05
 3  2  2     1.6497937939e-03
 3  2  3    -7.0864279591e-04
 3  3  1    -3.9582833421e-03
 3  3  2     2.2853159532e-03
 3  3  3     2.2245412500e-02

   21
0.0000000000e+00 0.0000000000e+00 0.0000000000e+00
0.0000000000e+00 0.0000000000e+00 0.0000000000e+00
     1      3      1
 1  1  1     1.5642916455e-01
 1  1  2     1.2234682199e+00
 1  1  3    -9.1146682315e+00
 1  2  1     5.9086623033e-01
 1  2  2    -3.1308987392e-01
 1  2  3     5.4864137006e+00
 1  3  1    -9.2938497985e+00
 1  3  2     4.6084561678e+00
 1  3  3     9.4299444714e+00
 2  1  1     1.2234682199e+00
 2  1  2     7.8260891355e-01
 2  1  3     5.4864137006e+00
 2  2  1    -3.1308987392e-01
 2  2  2    -1.1330201179e+00
 2  2  3    -2.7795033781e+00
 2  3  1     4.6084561678e+00
 2  3  2    -3.9724629816e+00
 2  3  3    -5.4443809793e+00
 3  1  1    -9.1146682315e+00
 3  1  2     5.4864137006e+00
 3  1  3     9.4895796773e+00
 3  2  1     5.4864137006e+00
 3  2  2    -2.7795033781e+00
 3  2  3    -5.4788113814e+00
 3  3  1     9.4299444714e+00
 3  3  2    -5.4443809793e+00
 3  3  3    -9.7298894498e+00

   22
0.0000000000e+00 0.0000000000e+00 0.0000000000e+00
0.0000000000e+00 0.0000000000e+00 0.0000000000e+00
     1      3      3
 1  1  1     6.3729058610e-01
 1  1  2    -4.5525492944e-01
 1  1  3     1.1303070289e+01
 1  2  1    -4.5525492944e-01
 1  2  2    -4.8129142763e-02
 1  2  3    -6.2521356157e+00
 1  3  1     1.1303070289e+01
 1  3  2    -6.2521356157e+00
 1  3  3    -1.1451902804e+01
 2  1  1    -2.2960392351e-01
 2  1  2     3.4270986446e-01
 2  1  3    -6.2521356157e+00
 2  2  1     3.4270986446e-01
 2  2  2    -1.1054859448e-01
 2  2  3     4.0837259285e+00
 2  3  1    -6.2521356157e+00
 2  3  2     4.0837259285e+00
 2  3  3     6.6117591667e+00
 3  1  1     9.8600435089e+00
 3  1  2    -5.5488020311e+00
 3  1  3    -1.0923416204e+01
 3  2  1    -5.5488020311e+00
 3  2  2     3.4528388170e+00
 3  2  3     6.3066372860e+00
 3  3  1    -1.0923416204e+01
 3  3  2     6.3066372860e+00
 3  3  3     1.2831884707e+01

   23
0.0000000000e+00 0.0000000000e+00 0.0000000000e+00
0.0000000000e+00 0.0000000000e+00 0.0000000000e+00
     1      3      5
 1  1  1    -4.3847325499e-01
 1  1  2     9.6541601102e-02
 1  1  3    -2.0320169502e-01
 1  2  1     9.6541601102e-02
 1  2  2     3.2899469606e-02
 1  2  3    -1.5964420678e-01
 1  3  1     2.0320169502e-01
 1  3  2     1.5964420678e-01
 1  3  3     7.4359777241e-01
 2  1  1    -5.8526501254e-02
 2  1  2    -2.3568636243e-01
 2  1  3    -1.5964420678e-01
 2  2  1    -2.3568636243e-01
 2  2  2     2.9268463559e-01
 2  2  3    -3.8754294676e-01
 2  3  1     1.5964420678e-01
 2  3  2     3.8754294676e-01
 2  3  3    -4.2931637409e-01
 3  1  1     0.0000000000e+00
 3  1  2     0.0000000000e+00
 3  1  3     6.2564003045e-01
 3  2  1     0.0000000000e+00
 3  2  2     0.0000000000e+00
 3  2  3    -3.6121344001e-01
 3  3  1     6.2564003045e-01
 3  3  2    -3.6121344001e-01
 3  3  3     0.0000000000e+00

   24
0.0000000000e+00 0.0000000000e+00 0.0000000000e+00
-3.3232091830e+00 0.0000000000e+00 0.0000000000e+00
     1      3      1
 1  1  1    -1.5472889713e-10
 1  1  2     9.6482410348e-01
 1  1  3    -2.2136952222e-01
 1  2  1    -1.0390340729e+00
 1  2  2     7.8094101265e-02
 1  2  3     3.2138158364e-03
 1  3  1    -1.1905525986e+00
 1  3  2     4.3901588232e-01
 1  3  3     3.9202088807e-01
 2  1  1     9.6482410351e-01
 2  1  2    -9.0029537415e-12
 2  1  3     2.0414665712e-01
 2  2  1    -7.8094101283e-02
 2  2  2     5.1820687664e-02
 2  2  3    -1.7509393934e-01
 2  3  1    -4.3901588193e-01
 2  3  2    -1.1269957946e+00
 2  3  3    -1.0761606423e+00
 3  1  1    -2.2136952214e-01
 3  1  2    -2.0414665706e-01
 3  1  3     2.7679633816e-10
 3  2  1    -3.2138157755e-03
 3  2  2    -1.7509393934e-01
 3  2  3    -1.5932300663e+00
 3  3  1    -3.9202088770e-01
 3  3  2    -1.0761606423e+00
 3  3  3    -1.9007841979e+00

   25
0.0000000000e+00 0.0000000000e+00 0.0000000000e+00
3.3232091830e+00 0.0000000000e+00 0.0000000000e+00
     1      3      3
 1  1  1     1.5567699309e-10
 1  1  2    -6.5572677451e-02
 1  1  3    -5.8702739663e-01
 1  2  1    -6.5572677550e-02
 1  2  2    -5.1146940992e-12
 1  2  3     1.4374208137e-01
 1  3  1    -5.8702739675e-01
 1  3  2    -1.4374208151e-01
 1  3  3    -1.8911908730e-11
 2  1  1    -7.6492598629e-01
 2  1  2    -2.8314604351e-01
 2  1  3    -4.6527509138e-01
 2  2  1     2.8314604350e-01
 2  2  2     2.9440000807e-02
 2  2  3     4.0604884149e-01
 2  3  1     4.6527509124e-01
 2  3  2     4.0604884149e-01
 2  3  3     1.0885628690e-01
 3  1  1     8.8950612546e-02
 3  1  2    -4.0623431527e-01
 3  1  3    -5.2530613350e-01
 3  2  1     4.0623431534e-01
 3  2  2    -2.2823270313e-01
 3  2  3     3.6650198800e-01
 3  3  1     5.2530613338e-01
 3  3  2     3.6650198800e-01
 3  3  3     4.0582014183e-01

   26
0.0000000000e+00 0.0000000000e+00 0.0000000000e+00
3.3232091830e+00 0.0000000000e+00 0.0000000000e+00
     1      3      5
 1  1  1     9.5302678313e-11
 1  1  2    -6.4762257341e-02
 1  1  3    -3.6037496169e-01
 1  2  1    -6.4762257606e-02
 1  2  2    -1.4770760483e-10
 1  2  3     2.0965947347e-01
 1  3  1     3.6037496145e-01
 1  3  2     2.0965947336e-01
 1  3  3    -1.5843933046e-11
 2  1  1    -4.1903437648e-01
 2  1  2    -7.6353752183e-01
 2  1  3     5.0137648929e-01
 2  2  1     7.6353752153e-01
 2  2  2     8.5019982053e-01
 2  2  3    -3.2333770280e-01
 2  3  1     5.0137648917e-01
 2  3  2     3.2333770280e-01
 2  3  3     9.1197125893e-02
 3  1  1    -3.5299953606e-11
 3  1  2     1.0159265075e-01
 3  1  3     1.2276152944e-01
 3  2  1     1.0159265075e-01
 3  2  2     0.0000000000e+00
 3  2  3    -2.3778286952e-02
 3  3  1    -1.2276152943e-01
 3  3  2    -2.3778286952e-02
 3  3  3     0.0000000000e+00

   27
0.0000000000e+00 0.0000000000e+00 0.0000000000e+00
-1.6616045920e+00 2.8779835750e+00 0.0000000000e+00
     1      3      1
 1  1  1    -2.2648214028e-01
 1  1  2    -1.0023303383e-01
 1  1  3    -2.7645255365e-01
 1  2  1     8.3406457909e-01
 1  2  2    -6.1491102493e-01
 1  2  3     1.7234445407e-01
 1  3  1    -1.1428849954e+00
 1  3  2    -4.1149497837e-01
 1  3  3     1.1279928986e+00
 2  1  1    -2.3549598498e-01
 2  1  2     1.0814340110e+00
 2  1  3    -2.8588387213e-02
 2  2  1    -6.9300512620e-01
 2  2  2    -3.4045788634e-01
 2  2  3    -1.2001090787e-01
 2  3  1     4.6653678589e-01
 2  3  2    -1.1746633979e+00
 2  3  3     1.9858027340e-01
 3  1  1    -9.6873116380e-02
 3  1  2     6.8664217652e-02
 3  1  3     1.3797777111e+00
 3  2  1    -1.3226862363e-01
 3  2  2    -2.9959034517e-01
 3  2  3     7.9661503315e-01
 3  3  1     7.3597201059e-01
 3  3  2     8.7758036894e-01
 3  3  3    -1.9007841979e+00

   28
0.0000000000e+00 0.0000000000e+00 0.0000000000e+00
1.6616045920e+00 -2.8779835750e+00 0.0000000000e+00
     1      3      3
 1  1  1     1.7488329493e-01
 1  1  2    -5.5949208118e-01
 1  1  3     2.9700765906e-01
 1  2  1    -6.9068747996e-02
 1  2  2     4.6206625272e-01
 1  2  3     4.5122786328e-02
 1  3  1     1.8551904343e-02
 1  3  2     8.1490646397e-01
 1  3  3    -9.4272309792e-02
 2  1  1     3.5396239912e-02
 2  1  2    -2.8516450076e-01
 2  1  3     6.5413995908e-01
 2  2  1    -2.0184572539e-03
 2  2  2     3.3234675299e-01
 2  2  3    -4.7798621465e-01
 2  3  1     2.0588929121e-01
 2  3  2    -1.9953045991e-01
 2  3  3    -5.4428143449e-02
 3  1  1    -1.4893687411e-01
 3  1  2     2.6888991080e-01
 3  1  3    -5.8005309886e-01
 3  2  1    -5.4357871981e-01
 3  2  2     9.6547836470e-03
 3  2  3     2.7167746239e-01
 3  3  1    -5.4746965263e-02
 3  3  2    -6.3817945039e-01
 3  3  3     4.0582014183e-01

   29
0.0000000000e+00 0.0000000000e+00 0.0000000000e+00
1.6616045920e+00 -2.8779835750e+00 0.0000000000e+00
     1      3      5
 1  1  1    -4.3345449783e-01
 1  1  2    -1.1533962785e+00
 1  1  3    -6.4048462077e-01
 1  2  1     1.6908950223e-01
 1  2  2     6.0054270561e-02
 1  2  3     3.3965510211e-01
 1  3  1     2.4709414079e-02
 1  3  2     3.0757989492e-01
 1  3  3    -7.8979027755e-02
 2  1  1    -3.1501732856e-01
 2  1  2    -6.2852314524e-01
 2  1  3     4.7938086301e-02
 2  2  1     1.3501437644e-01
 2  2  2     9.9434606782e-02
 2  2  3    -4.3228043584e-02
 2  3  1     1.5862879105e-02
 2  3  2     6.5900325033e-01
 2  3  3    -4.5598562946e-02
 3  1  1    -8.7981816392e-02
 3  1  2     5.0796325360e-02
 3  1  3     8.1973365289e-02
 3  2  1     5.0796325360e-02
 3  2  2     8.7981816401e-02
 3  2  3    -9.4425459638e-02
 3  3  1    -4.0788164182e-02
 3  3  2     1.1820374659e-01
 3  3  3     0.0000000000e+00

   30
0.0000000000e+00 0.0000000000e+00 0.0000000000e+00
1.6616045910e+00 2.8779835750e+00 0.0000000000e+00
     1      3      1
 1  1  1     2.1324979282e-01
 1  1  2     1.6172499142e-01
 1  1  3    -4.3463096786e-01
 1  2  1     1.8412979542e-02
 1  2  2     1.6907109626e-01
 1  2  3    -6.4897827868e-02
 1  3  1     3.6962955404e-01
 1  3  2     2.8659000952e-01
 1  3  3    -2.1746808952e-01
 2  1  1     5.2090338162e-03
 2  1  2     1.4620119140e-01
 2  1  3    -6.4897827868e-02
 2  2  1    -1.0202249462e-01
 2  2  2    -2.2594210212e-01
 2  2  3    -5.0956852490e-01
 2  3  1     2.8659000952e-01
 2  3  2     7.0055519272e-01
 2  3  3     1.2555526003e-01
 3  1  1    -2.1162649524e-01
 3  1  2     1.0546334651e-01
 3  1  3     6.5198384323e-01
 3  2  1     1.0546334651e-01
 3  2  2    -8.9847912270e-02
 3  2  3    -3.7642304741e-01
 3  3  1     7.1214174346e-02
 3  3  2    -4.1115522731e-02
 3  3  3    -2.2761236501e-01

   31
0.0000000000e+00 0.0000000000e+00 0.0000000000e+00
-1.6616045910e+00 -2.8779835750e+00 0.0000000000e+00
     1      3      3
 1  1  1    -1.0216891251e-01
 1  1  2     1.9499377391e-01
 1  1  3     2.1946793251e-01
 1  2  1     1.0438130275e-02
 1  2  2     3.0220254919e-01
 1  2  3    -2.0824977120e-02
 1  3  1     9.0961196262e-02
 1  3  2    -1.1117793615e-01
 1  3  3     1.6648647536e-01
 2  1  1    -1.8849275705e-01
 2  1  2    -4.2355855012e-02
 2  1  3    -2.0824977120e-02
 2  2  1    -3.6201560675e-01
 2  2  2     7.3003283185e-02
 2  2  3     1.9542132031e-01
 2  3  1    -1.1117793615e-01
 2  3  2    -3.7416026509e-02
 2  3  3    -9.6121011370e-02
 3  1  1     7.0987769693e-02
 3  1  2    -3.9193586072e-02
 3  1  3    -3.3063359741e-01
 3  2  1    -3.9193586072e-02
 3  2  2     2.5730914760e-02
 3  2  3     1.9089139648e-01
 3  3  1     1.1802016110e-01
 3  3  2    -6.8138971782e-02
 3  3  3     3.2850520212e-01

   32
0.0000000000e+00 0.0000000000e+00 0.0000000000e+00
1.6616045910e+00 2.8779835750e+00 0.0000000000e+00
     1      3      5
 1  1  1     2.0252227729e-02
 1  1  2    -2.4391599364e-01
 1  1  3     1.8008180222e-02
 1  2  1    -2.4643392234e-02
 1  2  2    -1.3070800043e-01
 1  2  3     1.1104046400e-01
 1  3  1    -1.5315111631e-01
 1  3  2     9.1988649085e-02
 1  3  3    -1.3361815000e-02
 2  1  1    -1.5236929600e-02
 2  1  2    -1.1441552922e-01
 2  1  3     1.1104046400e-01
 2  2  1     2.6537575729e-01
 2  2  2     7.9008599705e-02
 2  2  3     1.4622666387e-01
 2  3  1     9.1988649085e-02
 2  3  2    -4.6931773697e-02
 2  3  3     7.7144474873e-03
 3  1  1    -1.3944908515e-01
 3  1  2     1.2076645025e-01
 3  1  3     1.0020305103e-02
 3  2  1     1.2076645025e-01
 3  2  2     0.0000000000e+00