   0.63804E+00   0.12852E-03   0.61873E-04
   0.12761E+01   0.84771E-03   0.40736E-03
   0.19141E+01   0.12101E-02   0.57612E-03
   0.25522E+01   0.23964E-02   0.11299E-02
   0.31902E+01   0.30132E-02   0.14072E-02
   0.38282E+01   0.38798E-02   0.17868E-02
   0.44663E+01   0.52974E-02   0.24185E-02
   0.51043E+01   0.56947E-02   0.25685E-02
   0.57424E+01   0.77937E-02   0.34726E-02
   0.63804E+01   0.84108E-02   0.37073E-02
   0.70185E+01   0.10156E-01   0.44169E-02
   0.76565E+01   0.12448E-01   0.53502E-02
   0.82945E+01   0.13194E-01   0.55925E-02
   0.89326E+01   0.16764E-01   0.69953E-02
   0.95706E+01   0.18522E-01   0.76066E-02
   0.10209E+02   0.21769E-01   0.87958E-02
   0.10847E+02   0.25746E-01   0.10163E-01
   0.11485E+02   0.28375E-01   0.10969E-01
   0.12123E+02   0.35126E-01   0.13253E-01
   0.12761E+02   0.37839E-01   0.13811E-01
   0.13399E+02   0.47058E-01   0.16771E-01
   0.14037E+02   0.50822E-01   0.17272E-01
   0.14675E+02   0.64133E-01   0.21300E-01
   0.15313E+02   0.72878E-01   0.22954E-01
   0.15951E+02   0.86631E-01   0.26071E-01
   0.16589E+02   0.10671E+00   0.30913E-01
   0.17227E+02   0.13770E+00   0.37628E-01
   0.17865E+02   0.15155E+00   0.36584E-01
   0.18503E+02   0.17670E+00   0.35987E-01
   0.19141E+02   0.22383E+00   0.34848E-01
   0.19779E+02   0.31967E+00   0.31211E-01
   0.20417E+02   0.21491E+00   0.24588E-01
   0.21055E+02   0.16060E+00   0.20801E-01
   0.21693E+02   0.13403E+00   0.17853E-01
   0.22331E+02   0.12469E+00   0.17497E-01
   0.22969E+02   0.10847E+00   0.15523E-01
   0.23608E+02   0.10110E+00   0.15492E-01
   0.24246E+02   0.90011E-01   0.14791E-01
   0.24884E+02   0.81444E-01   0.14146E-01
   0.25522E+02   0.67848E-01   0.12591E-01
   0.26160E+02   0.53189E-01   0.11036E-01
   0.26798E+02   0.52011E-01   0.11770E-01
   0.27436E+02   0.58125E-01   0.14386E-01
   0.28074E+02   0.90891E-01   0.23453E-01
   0.28712E+02   0.18341E+00   0.65629E-01
   0.29350E+02   0.21005E+00   0.83520E-01
   0.29988E+02   0.12951E+00   0.48227E+00
   0.30626E+02   0.13135E+00   0.34910E+00
   0.31264E+02   0.15105E+00   0.42655E+00
   0.31902E+02   0.17481E+00   0.46346E+00
   0.32540E+02   0.16751E+00   0.41389E+00
   0.33178E+02   0.19922E+00   0.34358E+00
   0.33816E+02   0.89605E-01   0.21435E+00
   0.34454E+02   0.38513E-01   0.78654E-01
   0.35092E+02   0.20397E-01   0.24226E-01
   0.35730E+02   0.85826E-02   0.49759E-01
   0.36368E+02   0.21938E-02   0.55111E-01
   0.37006E+02   0.22120E-02   0.53281E-01
   0.37644E+02   0.22006E-02   0.51309E-01
   0.38282E+02   0.23501E-02   0.53287E-01
   0.38921E+02   0.25369E-02   0.52578E-01
   0.39559E+02   0.28373E-02   0.52758E-01
   0.40197E+02   0.32032E-02   0.53077E-01
   0.40835E+02   0.36152E-02   0.52411E-01
   0.41473E+02   0.41003E-02   0.53303E-01
   0.42111E+02   0.45674E-02   0.52194E-01
   0.42749E+02   0.51053E-02   0.53250E-01
   0.43387E+02   0.56163E-02   0.52120E-01
   0.44025E+02   0.61150E-02   0.52318E-01
   0.44663E+02   0.67118E-02   0.53015E-01
   0.45301E+02   0.71243E-02   0.51428E-01
   0.45939E+02   0.77703E-02   0.51824E-01
   0.46577E+02   0.81648E-02   0.51209E-01
   0.47215E+02   0.86816E-02   0.47873E-01
   0.47853E+02   0.90945E-02   0.41053E-01
   0.48491E+02   0.88989E-02   0.35005E-01
   0.49129E+02   0.92738E-02   0.33607E-01
   0.49767E+02   0.88428E-02   0.29367E-01
   0.50405E+02   0.90123E-02   0.28262E-01
   0.51043E+02   0.86636E-02   0.25482E-01
   0.51681E+02   0.83652E-02   0.23517E-01
   0.52319E+02   0.83188E-02   0.22307E-01
   0.52957E+02   0.74792E-02   0.19275E-01
   0.53595E+02   0.75691E-02   0.18846E-01
   0.54233E+02   0.68369E-02   0.16447E-01
   0.54872E+02   0.59210E-02   0.13847E-01
   0.55510E+02   0.54151E-02   0.12347E-01
   0.56148E+02   0.48346E-02   0.10754E-01
   0.56786E+02   0.39072E-02   0.84811E-02
   0.57424E+02   0.29092E-02   0.61588E-02
   0.58062E+02   0.42274E-03   0.87376E-03
   0.58700E+02   0.00000E+00   0.00000E+00
   0.59338E+02   0.00000E+00   0.00000E+00
   0.59976E+02   0.00000E+00   0.00000E+00
   0.60614E+02   0.00000E+00   0.00000E+00
   0.61252E+02   0.00000E+00   0.00000E+00
   0.61890E+02   0.00000E+00   0.00000E+00
   0.62528E+02   0.00000E+00   0.00000E+00
   0.63166E+02   0.00000E+00   0.00000E+00
   0.63804E+02   0.00000E+00   0.00000E+00
