 2774

    1
0.0000000000e+00 0.0000000000e+00 0.0000000000e+00
0.0000000000e+00 0.0000000000e+00 0.0000000000e+00
     1      1      1
 1  1  1     0.0000000000e+00
 1  1  2     0.0000000000e+00
 1  1  3     0.0000000000e+00
 1  2  1     0.0000000000e+00
 1  2  2     0.0000000000e+00
 1  2  3     0.0000000000e+00
 1  3  1     0.0000000000e+00
 1  3  2     0.0000000000e+00
 1  3  3     0.0000000000e+00
 2  1  1     0.0000000000e+00
 2  1  2     0.0000000000e+00
 2  1  3     0.0000000000e+00
 2  2  1     0.0000000000e+00
 2  2  2     0.0000000000e+00
 2  2  3     0.0000000000e+00
 2  3  1     0.0000000000e+00
 2  3  2     0.0000000000e+00
 2  3  3     0.0000000000e+00
 3  1  1     0.0000000000e+00
 3  1  2     0.0000000000e+00
 3  1  3     0.0000000000e+00
 3  2  1     0.0000000000e+00
 3  2  2     0.0000000000e+00
 3  2  3     0.0000000000e+00
 3  3  1     0.0000000000e+00
 3  3  2     0.0000000000e+00
 3  3  3     0.0000000000e+00

    2
0.0000000000e+00 0.0000000000e+00 0.0000000000e+00
0.0000000000e+00 0.0000000000e+00 0.0000000000e+00
     1      1      2
 1  1  1     3.9383754257e-02
 1  1  2     3.7813396875e-02
 1  1  3     3.7813396875e-02
 1  2  1     1.6596728728e-02
 1  2  2    -1.6596728728e-02
 1  2  3    -6.5530932629e-02
 1  3  1     1.6596728728e-02
 1  3  2    -6.5530932629e-02
 1  3  3    -1.6596728728e-02
 2  1  1     1.6596728728e-02
 2  1  2    -1.6596728728e-02
 2  1  3    -6.5530932629e-02
 2  2  1    -3.7813396875e-02
 2  2  2    -3.9383754257e-02
 2  2  3     3.7813396875e-02
 2  3  1    -6.5530932629e-02
 2  3  2     1.6596728728e-02
 2  3  3     1.6596728728e-02
 3  1  1     1.6596728728e-02
 3  1  2    -6.5530932629e-02
 3  1  3    -1.6596728728e-02
 3  2  1    -6.5530932629e-02
 3  2  2     1.6596728728e-02
 3  2  3     1.6596728728e-02
 3  3  1    -3.7813396875e-02
 3  3  2     3.7813396875e-02
 3  3  3    -3.9383754257e-02

    3
0.0000000000e+00 0.0000000000e+00 0.0000000000e+00
-2.6525518980e+00 0.0000000000e+00 2.6525518980e+00
     1      1      1
 1  1  1    -6.4277581542e-03
 1  1  2     0.0000000000e+00
 1  1  3    -2.4845971410e-01
 1  2  1     0.0000000000e+00
 1  2  2    -9.7976711136e-02
 1  2  3     0.0000000000e+00
 1  3  1    -2.1959889550e-01
 1  3  2     0.0000000000e+00
 1  3  3     2.1959889550e-01
 2  1  1     0.0000000000e+00
 2  1  2    -9.7976711136e-02
 2  1  3     0.0000000000e+00
 2  2  1    -1.3953159713e-01
 2  2  2     0.0000000000e+00
 2  2  3     1.3953159713e-01
 2  3  1     0.0000000000e+00
 2  3  2     9.7976711136e-02
 2  3  3     0.0000000000e+00
 3  1  1    -2.1959889550e-01
 3  1  2     0.0000000000e+00
 3  1  3     2.1959889550e-01
 3  2  1     0.0000000000e+00
 3  2  2     9.7976711136e-02
 3  2  3     0.0000000000e+00
 3  3  1     2.4845971410e-01
 3  3  2     0.0000000000e+00
 3  3  3     6.4277581542e-03

    4
0.0000000000e+00 0.0000000000e+00 0.0000000000e+00
5.3051037960e+00 0.0000000000e+00 -5.3051037960e+00
     1      1      2
 1  1  1    -3.9383754257e-02
 1  1  2     3.7813396875e-02
 1  1  3    -3.7813396875e-02
 1  2  1     1.6596728728e-02
 1  2  2     1.6596728728e-02
 1  2  3    -6.5530932629e-02
 1  3  1    -1.6596728728e-02
 1  3  2    -6.5530932629e-02
 1  3  3     1.6596728728e-02
 2  1  1     1.6596728728e-02
 2  1  2     1.6596728728e-02
 2  1  3    -6.5530932629e-02
 2  2  1     3.7813396875e-02
 2  2  2    -3.9383754257e-02
 2  2  3    -3.7813396875e-02
 2  3  1    -6.5530932629e-02
 2  3  2    -1.6596728728e-02
 2  3  3     1.6596728728e-02
 3  1  1    -1.6596728728e-02
 3  1  2    -6.5530932629e-02
 3  1  3     1.6596728728e-02
 3  2  1    -6.5530932629e-02
 3  2  2    -1.6596728728e-02
 3  2  3     1.6596728728e-02
 3  3  1     3.7813396875e-02
 3  3  2     3.7813396875e-02
 3  3  3     3.9383754257e-02

    5
0.0000000000e+00 0.0000000000e+00 0.0000000000e+00
2.6525518980e+00 0.0000000000e+00 -2.6525518980e+00
     1      1      1
 1  1  1     6.4277581542e-03
 1  1  2     0.0000000000e+00
 1  1  3     2.4845971410e-01
 1  2  1     0.0000000000e+00
 1  2  2     9.7976711136e-02
 1  2  3     0.0000000000e+00
 1  3  1     2.1959889550e-01
 1  3  2     0.0000000000e+00
 1  3  3    -2.1959889550e-01
 2  1  1     0.0000000000e+00
 2  1  2     9.7976711136e-02
 2  1  3     0.0000000000e+00
 2  2  1     1.3953159713e-01
 2  2  2     0.0000000000e+00
 2  2  3    -1.3953159713e-01
 2  3  1     0.0000000000e+00
 2  3  2    -9.7976711136e-02
 2  3  3     0.0000000000e+00
 3  1  1     2.1959889550e-01
 3  1  2     0.0000000000e+00
 3  1  3    -2.1959889550e-01
 3  2  1     0.0000000000e+00
 3  2  2    -9.7976711136e-02
 3  2  3     0.0000000000e+00
 3  3  1    -2.4845971410e-01
 3  3  2     0.0000000000e+00
 3  3  3    -6.4277581542e-03

    6
0.0000000000e+00 0.0000000000e+00 0.0000000000e+00
2.6525518980e+00 0.0000000000e+00 -2.6525518980e+00
     1      1      2
 1  1  1     0.0000000000e+00
 1  1  2     1.2471073780e-01
 1  1  3     0.0000000000e+00
 1  2  1     1.4197074902e-01
 1  2  2     0.0000000000e+00
 1  2  3     0.0000000000e+00
 1  3  1     0.0000000000e+00
 1  3  2     0.0000000000e+00
 1  3  3     0.0000000000e+00
 2  1  1     1.4197074902e-01
 2  1  2     0.0000000000e+00
 2  1  3     0.0000000000e+00
 2  2  1     0.0000000000e+00
 2  2  2    -5.6275584387e+00
 2  2  3     0.0000000000e+00
 2  3  1     0.0000000000e+00
 2  3  2     0.0000000000e+00
 2  3  3     1.4197074902e-01
 3  1  1     0.0000000000e+00
 3  1  2     0.0000000000e+00
 3  1  3     0.0000000000e+00
 3  2  1     0.0000000000e+00
 3  2  2     0.0000000000e+00
 3  2  3     1.4197074902e-01
 3  3  1     0.0000000000e+00
 3  3  2     1.2471073780e-01
 3  3  3     0.0000000000e+00

    7
0.0000000000e+00 0.0000000000e+00 0.0000000000e+00
0.0000000000e+00 2.6525518980e+00 2.6525518980e+00
     1      1      1
 1  1  1     0.0000000000e+00
 1  1  2     1.3953159713e-01
 1  1  3     1.3953159713e-01
 1  2  1     9.7976711136e-02
 1  2  2     0.0000000000e+00
 1  2  3     0.0000000000e+00
 1  3  1     9.7976711136e-02
 1  3  2     0.0000000000e+00
 1  3  3     0.0000000000e+00
 2  1  1     9.7976711136e-02
 2  1  2     0.0000000000e+00
 2  1  3     0.0000000000e+00
 2  2  1     0.0000000000e+00
 2  2  2     6.4277581542e-03
 2  2  3    -2.4845971410e-01
 2  3  1     0.0000000000e+00
 2  3  2    -2.1959889550e-01
 2  3  3    -2.1959889550e-01
 3  1  1     9.7976711136e-02
 3  1  2     0.0000000000e+00
 3  1  3     0.0000000000e+00
 3  2  1     0.0000000000e+00
 3  2  2    -2.1959889550e-01
 3  2  3    -2.1959889550e-01
 3  3  1     0.0000000000e+00
 3  3  2    -2.4845971410e-01
 3  3  3     6.4277581542e-03

    8
0.0000000000e+00 0.0000000000e+00 0.0000000000e+00
0.0000000000e+00 -5.3051037960e+00 -5.3051037960e+00
     1      1      2
 1  1  1     3.9383754257e-02
 1  1  2    -3.7813396875e-02
 1  1  3    -3.7813396875e-02
 1  2  1    -1.6596728728e-02
 1  2  2    -1.6596728728e-02
 1  2  3    -6.5530932629e-02
 1  3  1    -1.6596728728e-02
 1  3  2    -6.5530932629e-02
 1  3  3    -1.6596728728e-02
 2  1  1    -1.6596728728e-02
 2  1  2    -1.6596728728e-02
 2  1  3    -6.5530932629e-02
 2  2  1    -3.7813396875e-02
 2  2  2     3.9383754257e-02
 2  2  3    -3.7813396875e-02
 2  3  1    -6.5530932629e-02
 2  3  2    -1.6596728728e-02
 2  3  3    -1.6596728728e-02
 3  1  1    -1.6596728728e-02
 3  1  2    -6.5530932629e-02
 3  1  3    -1.6596728728e-02
 3  2  1    -6.5530932629e-02
 3  2  2    -1.6596728728e-02
 3  2  3    -1.6596728728e-02
 3  3  1    -3.7813396875e-02
 3  3  2    -3.7813396875e-02
 3  3  3     3.9383754257e-02

    9
0.0000000000e+00 0.0000000000e+00 0.0000000000e+00
5.3051037960e+00 2.6525518980e+00 -2.6525518980e+00
     1      1      2
 1  1  1    -5.0445995401e-02
 1  1  2     3.7947945440e-03
 1  1  3     0.0000000000e+00
 1  2  1    -4.2575189098e-02
 1  2  2     4.2575189098e-02
 1  2  3     0.0000000000e+00
 1  3  1     0.0000000000e+00
 1  3  2     0.0000000000e+00
 1  3  3     1.2457812695e-02
 2  1  1    -4.2575189098e-02
 2  1  2     4.2575189098e-02
 2  1  3     0.0000000000e+00
 2  2  1    -3.7947945440e-03
 2  2  2     5.0445995401e-02
 2  2  3     0.0000000000e+00
 2  3  1     0.0000000000e+00
 2  3  2     0.0000000000e+00
 2  3  3    -1.2457812695e-02
 3  1  1     0.0000000000e+00
 3  1  2     0.0000000000e+00
 3  1  3     1.2457812695e-02
 3  2  1     0.0000000000e+00
 3  2  2     0.0000000000e+00
 3  2  3    -1.2457812695e-02
 3  3  1     1.5980546706e-02
 3  3  2    -1.5980546706e-02
 3  3  3     0.0000000000e+00

   10
0.0000000000e+00 0.0000000000e+00 0.0000000000e+00
2.6525518980e+00 2.6525518980e+00 -5.5511151231e-16
     1      1      1
 1  1  1     6.4277581542e-03
 1  1  2    -2.4845971410e-01
 1  1  3     0.0000000000e+00
 1  2  1    -2.1959889550e-01
 1  2  2    -2.1959889550e-01
 1  2  3     0.0000000000e+00
 1  3  1     0.0000000000e+00
 1  3  2     0.0000000000e+00
 1  3  3     9.7976711136e-02
 2  1  1    -2.1959889550e-01
 2  1  2    -2.1959889550e-01
 2  1  3     0.0000000000e+00
 2  2  1    -2.4845971410e-01
 2  2  2     6.4277581542e-03
 2  2  3     0.0000000000e+00
 2  3  1     0.0000000000e+00
 2  3  2     0.0000000000e+00
 2  3  3     9.7976711136e-02
 3  1  1     0.0000000000e+00
 3  1  2     0.0000000000e+00
 3  1  3     9.7976711136e-02
 3  2  1     0.0000000000e+00
 3  2  2     0.0000000000e+00
 3  2  3     9.7976711136e-02
 3  3  1     1.3953159713e-01
 3  3  2     1.3953159713e-01
 3  3  3     0.0000000000e+00

   11
0.0000000000e+00 0.0000000000e+00 0.0000000000e+00
2.6525518980e+00 -5.3051037960e+00 -7.9576556940e+00
     1      1      2
 1  1  1     0.0000000000e+00
 1  1  2    -1.5980546706e-02
 1  1  3     1.5980546706e-02
 1  2  1    -1.2457812695e-02
 1  2  2     0.0000000000e+00
 1  2  3     0.0000000000e+00
 1  3  1     1.2457812695e-02
 1  3  2     0.0000000000e+00
 1  3  3     0.0000000000e+00
 2  1  1    -1.2457812695e-02
 2  1  2     0.0000000000e+00
 2  1  3     0.0000000000e+00
 2  2  1     0.0000000000e+00
 2  2  2     5.0445995401e-02
 2  2  3    -3.7947945440e-03
 2  3  1     0.0000000000e+00
 2  3  2     4.2575189098e-02
 2  3  3    -4.2575189098e-02
 3  1  1     1.2457812695e-02
 3  1  2     0.0000000000e+00
 3  1  3     0.0000000000e+00
 3  2  1     0.0000000000e+00
 3  2  2     4.2575189098e-02
 3  2  3    -4.2575189098e-02
 3  3  1     0.0000000000e+00
 3  3  2     3.7947945440e-03
 3  3  3    -5.0445995401e-02

   12
0.0000000000e+00 0.0000000000e+00 0.0000000000e+00
0.0000000000e+00 -2.6525518980e+00 -2.6525518980e+00
     1      1      1
 1  1  1     0.0000000000e+00
 1  1  2    -1.3953159713e-01
 1  1  3    -1.3953159713e-01
 1  2  1    -9.7976711136e-02
 1  2  2     0.0000000000e+00
 1  2  3     0.0000000000e+00
 1  3  1    -9.7976711136e-02
 1  3  2     0.0000000000e+00
 1  3  3     0.0000000000e+00
 2  1  1    -9.7976711136e-02
 2  1  2     0.0000000000e+00
 2  1  3     0.0000000000e+00
 2  2  1     0.0000000000e+00
 2  2  2    -6.4277581542e-03
 2  2  3     2.4845971410e-01
 2  3  1     0.0000000000e+00
 2  3  2     2.1959889550e-01
 2  3  3     2.1959889550e-01
 3  1  1    -9.7976711136e-02
 3  1  2     0.0000000000e+00
 3  1  3     0.0000000000e+00
 3  2  1     0.0000000000e+00
 3  2  2     2.1959889550e-01
 3  2  3     2.1959889550e-01
 3  3  1     0.0000000000e+00
 3  3  2     2.4845971410e-01
 3  3  3    -6.4277581542e-03

   13
0.0000000000e+00 0.0000000000e+00 0.0000000000e+00
0.0000000000e+00 -2.6525518980e+00 -2.6525518980e+00
     1      1      2
 1  1  1     5.6275584387e+00
 1  1  2     0.0000000000e+00
 1  1  3     0.0000000000e+00
 1  2  1     0.0000000000e+00
 1  2  2    -1.4197074902e-01
 1  2  3     0.0000000000e+00
 1  3  1     0.0000000000e+00
 1  3  2     0.0000000000e+00
 1  3  3    -1.4197074902e-01
 2  1  1     0.0000000000e+00
 2  1  2    -1.4197074902e-01
 2  1  3     0.0000000000e+00
 2  2  1    -1.2471073780e-01
 2  2  2     0.0000000000e+00
 2  2  3     0.0000000000e+00
 2  3  1     0.0000000000e+00
 2  3  2     0.0000000000e+00
 2  3  3     0.0000000000e+00
 3  1  1     0.0000000000e+00
 3  1  2     0.0000000000e+00
 3  1  3    -1.4197074902e-01
 3  2  1     0.0000000000e+00
 3  2  2     0.0000000000e+00
 3  2  3     0.0000000000e+00
 3  3  1    -1.2471073780e-01
 3  3  2     0.0000000000e+00
 3  3  3     0.0000000000e+00

   14
0.0000000000e+00 0.0000000000e+00 0.0000000000e+00
-2.6525518980e+00 -2.6525518980e+00 -5.5511151231e-16
     1      1      1
 1  1  1    -6.4277581542e-03
 1  1  2     2.4845971410e-01
 1  1  3     0.0000000000e+00
 1  2  1     2.1959889550e-01
 1  2  2     2.1959889550e-01
 1  2  3     0.0000000000e+00
 1  3  1     0.0000000000e+00
 1  3  2     0.0000000000e+00
 1  3  3    -9.7976711136e-02
 2  1  1     2.1959889550e-01
 2  1  2     2.1959889550e-01
 2  1  3     0.0000000000e+00
 2  2  1     2.4845971410e-01
 2  2  2    -6.4277581542e-03
 2  2  3     0.0000000000e+00
 2  3  1     0.0000000000e+00
 2  3  2     0.0000000000e+00
 2  3  3    -9.7976711136e-02
 3  1  1     0.0000000000e+00
 3  1  2     0.0000000000e+00
 3  1  3    -9.7976711136e-02
 3  2  1     0.0000000000e+00
 3  2  2     0.0000000000e+00
 3  2  3    -9.7976711136e-02
 3  3  1    -1.3953159713e-01
 3  3  2    -1.3953159713e-01
 3  3  3     0.0000000000e+00

   15
0.0000000000e+00 0.0000000000e+00 0.0000000000e+00
5.3051037960e+00 -2.6525518980e+00 -7.9576556940e+00
     1      1      2
 1  1  1    -5.0445995401e-02
 1  1  2     0.0000000000e+00
 1  1  3    -3.7947945440e-03
 1  2  1     0.0000000000e+00
 1  2  2     1.2457812695e-02
 1  2  3     0.0000000000e+00
 1  3  1     4.2575189098e-02
 1  3  2     0.0000000000e+00
 1  3  3     4.2575189098e-02
 2  1  1     0.0000000000e+00
 2  1  2     1.2457812695e-02
 2  1  3     0.0000000000e+00
 2  2  1     1.5980546706e-02
 2  2  2     0.0000000000e+00
 2  2  3     1.5980546706e-02
 2  3  1     0.0000000000e+00
 2  3  2     1.2457812695e-02
 2  3  3     0.0000000000e+00
 3  1  1     4.2575189098e-02
 3  1  2     0.0000000000e+00
 3  1  3     4.2575189098e-02
 3  2  1     0.0000000000e+00
 3  2  2     1.2457812695e-02
 3  2  3     0.0000000000e+00
 3  3  1    -3.7947945440e-03
 3  3  2     0.0000000000e+00
 3  3  3    -5.0445995401e-02

   16
0.0000000000e+00 0.0000000000e+00 0.0000000000e+00
2.6525518980e+00 -2.6525518980e+00 -5.3051037960e+00
     1      1      2
 1  1  1     0.0000000000e+00
 1  1  2     0.0000000000e+00
 1  1  3    -1.2471073780e-01
 1  2  1     0.0000000000e+00
 1  2  2     0.0000000000e+00
 1  2  3     0.0000000000e+00
 1  3  1    -1.4197074902e-01
 1  3  2     0.0000000000e+00
 1  3  3     0.0000000000e+00
 2  1  1     0.0000000000e+00
 2  1  2     0.0000000000e+00
 2  1  3     0.0000000000e+00
 2  2  1     0.0000000000e+00
 2  2  2     0.0000000000e+00
 2  2  3    -1.2471073780e-01
 2  3  1     0.0000000000e+00
 2  3  2    -1.4197074902e-01
 2  3  3     0.0000000000e+00
 3  1  1    -1.4197074902e-01
 3  1  2     0.0000000000e+00
 3  1  3     0.0000000000e+00
 3  2  1     0.0000000000e+00
 3  2  2    -1.4197074902e-01
 3  2  3     0.0000000000e+00
 3  3  1     0.0000000000e+00
 3  3  2     0.0000000000e+00
 3  3  3     5.6275584387e+00

   17
0.0000000000e+00 0.0000000000e+00 0.0000000000e+00
-2.6525518980e+00 2.6525518980e+00 0.0000000000e+00
     1      1      1
 1  1  1    -6.4277581542e-03
 1  1  2    -2.4845971410e-01
 1  1  3     0.0000000000e+00
 1  2  1    -2.1959889550e-01
 1  2  2     2.1959889550e-01
 1  2  3     0.0000000000e+00
 1  3  1     0.0000000000e+00
 1  3  2     0.0000000000e+00
 1  3  3    -9.7976711136e-02
 2  1  1    -2.1959889550e-01
 2  1  2     2.1959889550e-01
 2  1  3     0.0000000000e+00
 2  2  1     2.4845971410e-01
 2  2  2     6.4277581542e-03
 2  2  3     0.0000000000e+00
 2  3  1     0.0000000000e+00
 2  3  2     0.0000000000e+00
 2  3  3     9.7976711136e-02
 3  1  1     0.0000000000e+00
 3  1  2     0.0000000000e+00
 3  1  3    -9.7976711136e-02
 3  2  1     0.0000000000e+00
 3  2  2     0.0000000000e+00
 3  2  3     9.7976711136e-02
 3  3  1    -1.3953159713e-01
 3  3  2     1.3953159713e-01
 3  3  3     0.0000000000e+00

   18
0.0000000000e+00 0.0000000000e+00 0.0000000000e+00
5.3051037960e+00 -5.3051037960e+00 0.0000000000e+00
     1      1      2
 1  1  1    -3.9383754257e-02
 1  1  2    -3.7813396875e-02
 1  1  3     3.7813396875e-02
 1  2  1    -1.6596728728e-02
 1  2  2     1.6596728728e-02
 1  2  3    -6.5530932629e-02
 1  3  1     1.6596728728e-02
 1  3  2    -6.5530932629e-02
 1  3  3     1.6596728728e-02
 2  1  1    -1.6596728728e-02
 2  1  2     1.6596728728e-02
 2  1  3    -6.5530932629e-02
 2  2  1     3.7813396875e-02
 2  2  2     3.9383754257e-02
 2  2  3     3.7813396875e-02
 2  3  1    -6.5530932629e-02
 2  3  2     1.6596728728e-02
 2  3  3    -1.6596728728e-02
 3  1  1     1.6596728728e-02
 3  1  2    -6.5530932629e-02
 3  1  3     1.6596728728e-02
 3  2  1    -6.5530932629e-02
 3  2  2     1.6596728728e-02
 3  2  3    -1.6596728728e-02
 3  3  1     3.7813396875e-02
 3  3  2    -3.7813396875e-02
 3  3  3    -3.9383754257e-02

   19
0.0000000000e+00 0.0000000000e+00 0.0000000000e+00
2.6525518980e+00 2.6525518980e+00 -5.3051037960e+00
     1      1      2
 1  1  1     0.0000000000e+00
 1  1  2    -1.5980546706e-02
 1  1  3    -1.5980546706e-02
 1  2  1    -1.2457812695e-02
 1  2  2     0.0000000000e+00
 1  2  3     0.0000000000e+00
 1  3  1    -1.2457812695e-02
 1  3  2     0.0000000000e+00
 1  3  3     0.0000000000e+00
 2  1  1    -1.2457812695e-02
 2  1  2     0.0000000000e+00
 2  1  3     0.0000000000e+00
 2  2  1     0.0000000000e+00
 2  2  2     5.0445995401e-02
 2  2  3     3.7947945440e-03
 2  3  1     0.0000000000e+00
 2  3  2    -4.2575189098e-02
 2  3  3    -4.2575189098e-02
 3  1  1    -1.2457812695e-02
 3  1  2     0.0000000000e+00
 3  1  3     0.0000000000e+00
 3  2  1     0.0000000000e+00
 3  2  2    -4.2575189098e-02
 3  2  3    -4.2575189098e-02
 3  3  1     0.0000000000e+00
 3  3  2     3.7947945440e-03
 3  3  3     5.0445995401e-02

   20
0.0000000000e+00 0.0000000000e+00 0.0000000000e+00
5.5511151231e-16 2.6525518980e+00 -2.6525518980e+00
     1      1      1
 1  1  1     0.0000000000e+00
 1  1  2     1.3953159713e-01
 1  1  3    -1.3953159713e-01
 1  2  1     9.7976711136e-02
 1  2  2     0.0000000000e+00
 1  2  3     0.0000000000e+00
 1  3  1    -9.7976711136e-02
 1  3  2     0.0000000000e+00
 1  3  3     0.0000000000e+00
 2  1  1     9.7976711136e-02
 2  1  2     0.0000000000e+00
 2  1  3     0.0000000000e+00
 2  2  1     0.0000000000e+00
 2  2  2     6.4277581542e-03
 2  2  3     2.4845971410e-01
 2  3  1     0.0000000000e+00
 2  3  2     2.1959889550e-01
 2  3  3    -2.1959889550e-01
 3  1  1    -9.7976711136e-02
 3  1  2     0.0000000000e+00
 3  1  3     0.0000000000e+00
 3  2  1     0.0000000000e+00
 3  2  2     2.1959889550e-01
 3  2  3    -2.1959889550e-01
 3  3  1     0.0000000000e+00
 3  3  2    -2.4845971410e-01
 3  3  3    -6.4277581542e-03

   21
0.0000000000e+00 0.0000000000e+00 0.0000000000e+00
7.9576556940e+00 -5.3051037960e+00 -2.6525518980e+00
     1      1      2
 1  1  1     5.0445995401e-02
 1  1  2     3.7947945440e-03
 1  1  3     0.0000000000e+00
 1  2  1    -4.2575189098e-02
 1  2  2    -4.2575189098e-02
 1  2  3     0.0000000000e+00
 1  3  1     0.0000000000e+00
 1  3  2     0.0000000000e+00
 1  3  3    -1.2457812695e-02
 2  1  1    -4.2575189098e-02
 2  1  2    -4.2575189098e-02
 2  1  3     0.0000000000e+00
 2  2  1     3.7947945440e-03
 2  2  2     5.0445995401e-02
 2  2  3     0.0000000000e+00
 2  3  1     0.0000000000e+00
 2  3  2     0.0000000000e+00
 2  3  3    -1.2457812695e-02
 3  1  1     0.0000000000e+00
 3  1  2     0.0000000000e+00
 3  1  3    -1.2457812695e-02
 3  2  1     0.0000000000e+00
 3  2  2     0.0000000000e+00
 3  2  3    -1.2457812695e-02
 3  3  1    -1.5980546706e-02
 3  3  2    -1.5980546706e-02
 3  3  3     0.0000000000e+00

   22
0.0000000000e+00 0.0000000000e+00 0.0000000000e+00
-2.6525518980e+00 -2.6525518980e+00 -5.3051037960e+00
     1      1      2
 1  1  1    -5.0445995401e-02
 1  1  2     0.0000000000e+00
 1  1  3     3.7947945440e-03
 1  2  1     0.0000000000e+00
 1  2  2     1.2457812695e-02
 1  2  3     0.0000000000e+00
 1  3  1    -4.2575189098e-02
 1  3  2     0.0000000000e+00
 1  3  3     4.2575189098e-02
 2  1  1     0.0000000000e+00
 2  1  2     1.2457812695e-02
 2  1  3     0.0000000000e+00
 2  2  1     1.5980546706e-02
 2  2  2     0.0000000000e+00
 2  2  3    -1.5980546706e-02
 2  3  1     0.0000000000e+00
 2  3  2    -1.2457812695e-02
 2  3  3     0.0000000000e+00
 3  1  1    -4.2575189098e-02
 3  1  2     0.0000000000e+00
 3  1  3     4.2575189098e-02
 3  2  1     0.0000000000e+00
 3  2  2    -1.2457812695e-02
 3  2  3     0.0000000000e+00
 3  3  1    -3.7947945440e-03
 3  3  2     0.0000000000e+00
 3  3  3     5.0445995401e-02

   23
0.0000000000e+00 0.0000000000e+00 0.0000000000e+00
5.5511151231e-16 5.3051037960e+00 -5.5511151231e-16
     1      1      1
 1  1  1     0.0000000000e+00
 1  1  2     5.6251492584e-02
 1  1  3     0.0000000000e+00
 1  2  1     3.1053434316e-02
 1  2  2     0.0000000000e+00
 1  2  3     0.0000000000e+00
 1  3  1     0.0000000000e+00
 1  3  2     0.0000000000e+00
 1  3  3     0.0000000000e+00
 2  1  1     3.1053434316e-02
 2  1  2     0.0000000000e+00
 2  1  3     0.0000000000e+00
 2  2  1     0.0000000000e+00
 2  2  2    -1.0220135465e-01
 2  2  3     0.0000000000e+00
 2  3  1     0.0000000000e+00
 2  3  2     0.0000000000e+00
 2  3  3     3.1053434316e-02
 3  1  1     0.0000000000e+00
 3  1  2     0.0000000000e+00
 3  1  3     0.0000000000e+00
 3  2  1     0.0000000000e+00
 3  2  2     0.0000000000e+00
 3  2  3     3.1053434316e-02
 3  3  1     0.0000000000e+00
 3  3  2     5.6251492584e-02
 3  3  3     0.0000000000e+00

   24
0.0000000000e+00 0.0000000000e+00 0.0000000000e+00
-1.1102230246e-15 -2.6525518980e+00 -7.9576556940e+00
     1      1      2
 1  1  1     5.0445995401e-02
 1  1  2     0.0000000000e+00
 1  1  3    -3.7947945440e-03
 1  2  1     0.0000000000e+00
 1  2  2    -1.2457812695e-02
 1  2  3     0.0000000000e+00
 1  3  1     4.2575189098e-02
 1  3  2     0.0000000000e+00
 1  3  3    -4.2575189098e-02
 2  1  1     0.0000000000e+00
 2  1  2    -1.2457812695e-02
 2  1  3     0.0000000000e+00
 2  2  1    -1.5980546706e-02
 2  2  2     0.0000000000e+00
 2  2  3     1.5980546706e-02
 2  3  1     0.0000000000e+00
 2  3  2     1.2457812695e-02
 2  3  3     0.0000000000e+00
 3  1  1     4.2575189098e-02
 3  1  2     0.0000000000e+00
 3  1  3    -4.2575189098e-02
 3  2  1     0.0000000000e+00
 3  2  2     1.2457812695e-02
 3  2  3     0.0000000000e+00
 3  3  1     3.7947945440e-03
 3  3  2     0.0000000000e+00
 3  3  3    -5.0445995401e-02

   25
0.0000000000e+00 0.0000000000e+00 0.0000000000e+00
-2.6525518980e+00 -5.5511151231e-16 -2.6525518980e+00
     1      1      1
 1  1  1    -6.4277581542e-03
 1  1  2     0.0000000000e+00
 1  1  3     2.4845971410e-01
 1  2  1     0.0000000000e+00
 1  2  2    -9.7976711136e-02
 1  2  3     0.0000000000e+00
 1  3  1     2.1959889550e-01
 1  3  2     0.0000000000e+00
 1  3  3     2.1959889550e-01
 2  1  1     0.0000000000e+00
 2  1  2    -9.7976711136e-02
 2  1  3     0.0000000000e+00
 2  2  1    -1.3953159713e-01
 2  2  2     0.0000000000e+00
 2  2  3    -1.3953159713e-01
 2  3  1     0.0000000000e+00
 2  3  2    -9.7976711136e-02
 2  3  3     0.0000000000e+00
 3  1  1     2.1959889550e-01
 3  1  2     0.0000000000e+00
 3  1  3     2.1959889550e-01
 3  2  1     0.0000000000e+00
 3  2  2    -9.7976711136e-02
 3  2  3     0.0000000000e+00
 3  3  1     2.4845971410e-01
 3  3  2     0.0000000000e+00
 3  3  3    -6.4277581542e-03

   26
0.0000000000e+00 0.0000000000e+00 0.0000000000e+00
5.3051037960e+00 -7.9576556940e+00 -2.6525518980e+00
     1      1      2
 1  1  1    -5.0445995401e-02
 1  1  2    -3.7947945440e-03
 1  1  3     0.0000000000e+00
 1  2  1     4.2575189098e-02
 1  2  2     4.2575189098e-02
 1  2  3     0.0000000000e+00
 1  3  1     0.0000000000e+00
 1  3  2     0.0000000000e+00
 1  3  3     1.2457812695e-02
 2  1  1     4.2575189098e-02
 2  1  2     4.2575189098e-02
 2  1  3     0.0000000000e+00
 2  2  1    -3.7947945440e-03
 2  2  2    -5.0445995401e-02
 2  2  3     0.0000000000e+00
 2  3  1     0.0000000000e+00
 2  3  2     0.0000000000e+00
 2  3  3     1.2457812695e-02
 3  1  1     0.0000000000e+00
 3  1  2     0.0000000000e+00
 3  1  3     1.2457812695e-02
 3  2  1     0.0000000000e+00
 3  2  2     0.0000000000e+00
 3  2  3     1.2457812695e-02
 3  3  1     1.5980546706e-02
 3  3  2     1.5980546706e-02
 3  3  3     0.0000000000e+00

   27
0.0000000000e+00 0.0000000000e+00 0.0000000000e+00
-5.3051037960e+00 -5.5511151231e-16 -5.5511151231e-16
     1      1      1
 1  1  1     1.0220135465e-01
 1  1  2     0.0000000000e+00
 1  1  3     0.0000000000e+00
 1  2  1     0.0000000000e+00
 1  2  2    -3.1053434316e-02
 1  2  3     0.0000000000e+00
 1  3  1     0.0000000000e+00
 1  3  2     0.0000000000e+00
 1  3  3    -3.1053434316e-02
 2  1  1     0.0000000000e+00
 2  1  2    -3.1053434316e-02
 2  1  3     0.0000000000e+00
 2  2  1    -5.6251492584e-02
 2  2  2     0.0000000000e+00
 2  2  3     0.0000000000e+00
 2  3  1     0.0000000000e+00
 2  3  2     0.0000000000e+00
 2  3  3     0.0000000000e+00
 3  1  1     0.0000000000e+00
 3  1  2     0.0000000000e+00
 3  1  3    -3.1053434316e-02
 3  2  1     0.0000000000e+00
 3  2  2     0.0000000000e+00
 3  2  3     0.0000000000e+00
 3  3  1    -5.6251492584e-02
 3  3  2     0.0000000000e+00
 3  3  3     0.0000000000e+00

   28
0.0000000000e+00 0.0000000000e+00 0.0000000000e+00
2.6525518980e+00 1.1102230246e-15 -7.9576556940e+00
     1      1      2
 1  1  1     0.0000000000e+00
 1  1  2     1.5980546706e-02
 1  1  3     1.5980546706e-02
 1  2  1     1.2457812695e-02
 1  2  2     0.0000000000e+00
 1  2  3     0.0000000000e+00
 1  3  1     1.2457812695e-02
 1  3  2     0.0000000000e+00
 1  3  3     0.0000000000e+00
 2  1  1     1.2457812695e-02
 2  1  2     0.0000000000e+00
 2  1  3     0.0000000000e+00
 2  2  1     0.0000000000e+00
 2  2  2    -5.0445995401e-02
 2  2  3    -3.7947945440e-03
 2  3  1     0.0000000000e+00
 2  3  2     4.2575189098e-02
 2  3  3     4.2575189098e-02
 3  1  1     1.2457812695e-02
 3  1  2     0.0000000000e+00
 3  1  3     0.0000000000e+00
 3  2  1     0.0000000000e+00
 3  2  2     4.2575189098e-02
 3  2  3     4.2575189098e-02
 3  3  1     0.0000000000e+00
 3  3  2    -3.7947945440e-03
 3  3  3    -5.0445995401e-02

   29
0.0000000000e+00 0.0000000000e+00 0.0000000000e+00
5.5511151231e-16 -5.5511151231e-16 -5.3051037960e+00
     1      1      1
 1  1  1     0.0000000000e+00
 1  1  2     0.0000000000e+00
 1  1  3    -5.6251492584e-02
 1  2  1     0.0000000000e+00
 1  2  2     0.0000000000e+00
 1  2  3     0.0000000000e+00
 1  3  1    -3.1053434316e-02
 1  3  2     0.0000000000e+00
 1  3  3     0.0000000000e+00
 2  1  1     0.0000000000e+00
 2  1  2     0.0000000000e+00
 2  1  3     0.0000000000e+00
 2  2  1     0.0000000000e+00
 2  2  2     0.0000000000e+00
 2  2  3    -5.6251492584e-02
 2  3  1     0.0000000000e+00
 2  3  2    -3.1053434316e-02
 2  3  3     0.0000000000e+00
 3  1  1    -3.1053434316e-02
 3  1  2     0.0000000000e+00
 3  1  3     0.0000000000e+00
 3  2  1     0.0000000000e+00
 3  2  2    -3.1053434316e-02
 3  2  3     0.0000000000e+00
 3  3  1     0.0000000000e+00
 3  3  2     0.0000000000e+00
 3  3  3     1.0220135465e-01

   30
0.0000000000e+00 0.0000000000e+00 0.0000000000e+00
-1.1102230246e-15 1.1102230246e-15 -5.3051037960e+00
     1      1      2
 1  1  1     3.9383754257e-02
 1  1  2     3.7813396875e-02
 1  1  3    -3.7813396875e-02
 1  2  1     1.6596728728e-02
 1  2  2    -1.6596728728e-02
 1  2  3     6.5530932629e-02
 1  3  1    -1.6596728728e-02
 1  3  2     6.5530932629e-02
 1  3  3    -1.6596728728e-02
 2  1  1     1.6596728728e-02
 2  1  2    -1.6596728728e-02
 2  1  3     6.5530932629e-02
 2  2  1    -3.7813396875e-02
 2  2  2    -3.9383754257e-02
 2  2  3    -3.7813396875e-02
 2  3  1     6.5530932629e-02
 2  3  2    -1.6596728728e-02
 2  3  3     1.6596728728e-02
 3  1  1    -1.6596728728e-02
 3  1  2     6.5530932629e-02
 3  1  3    -1.6596728728e-02
 3  2  1     6.5530932629e-02
 3  2  2    -1.6596728728e-02
 3  2  3     1.6596728728e-02
 3  3  1    -3.7813396875e-02
 3  3  2     3.7813396875e-02
 3  3  3     3.9383754257e-02

   31
0.0000000000e+00 0.0000000000e+00 0.0000000000e+00
2.6525518980e+00 -2.6525518980e+00 0.0000000000e+00
     1      1      1
 1  1  1     6.4277581542e-03
 1  1  2     2.4845971410e-01
 1  1  3     0.0000000000e+00
 1  2  1     2.1959889550e-01
 1  2  2    -2.1959889550e-01
 1  2  3     0.0000000000e+00
 1  3  1     0.0000000000e+00
 1  3  2     0.0000000000e+00
 1  3  3     9.7976711136e-02
 2  1  1     2.1959889550e-01
 2  1  2    -2.1959889550e-01
 2  1  3     0.0000000000e+00
 2  2  1    -2.4845971410e-01
 2  2  2    -6.4277581542e-03
 2  2  3     0.0000000000e+00
 2  3  1     0.0000000000e+00
 2  3  2     0.0000000000e+00
 2  3  3    -9.7976711136e-02
 3  1  1     0.0000000000e+00
 3  1  2     0.0000000000e+00
 3  1  3     9.7976711136e-02
 3  2  1     0.0000000000e+00
 3  2  2     0.0000000000e+00
 3  2  3    -9.7976711136e-02
 3  3  1     1.3953159713e-01
 3  3  2    -1.3953159713e-01
 3  3  3     0.0000000000e+00

   32
0.0000000000e+00 0.0000000000e+00 0.0000000000e+00
2.6525518980e+00 -2.6525518980e+00 0.0000000000e+00
     1      1      2
 1  1  1     0.0000000000e+00
 1  1  2     0.0000000000e+00
 1  1  3     1.2471073780e-01
 1  2  1     0.0000000000e+00
 1  2  2     0.0000000000e+00
 1  2  3     0.0000000000e+00
 1  3  1     1.4197074902e-01
 1  3  2     0.0000000000e+00
 1  3  3     0.0000000000e+00
 2  1  1     0.0000000000e+00
 2  1  2     0.0000000000e+00
 2  1  3     0.0000000000e+00
 2  2  1     0.0000000000e+00
 2  2  2     0.0000000000e+00
 2  2  3     1.2471073780e-01
 2  3  1     0.0000000000e+00
 2  3  2     1.4197074902e-01
 2  3  3     0.0000000000e+00
 3  1  1     1.4197074902e-01
 3  1  2     0.0000000000e+00
 3  1  3     0.0000000000e+00
 3  2  1     0.0000000000e+00