 1824

    1
0.0000000000e+00 0.0000000000e+00 0.0000000000e+00
0.0000000000e+00 0.0000000000e+00 0.0000000000e+00
     1      1      1
 1  1  1     0.0000000000e+00
 1  1  2     0.0000000000e+00
 1  1  3     0.0000000000e+00
 1  2  1     0.0000000000e+00
 1  2  2     0.0000000000e+00
 1  2  3     0.0000000000e+00
 1  3  1     0.0000000000e+00
 1  3  2     0.0000000000e+00
 1  3  3     0.0000000000e+00
 2  1  1     0.0000000000e+00
 2  1  2     0.0000000000e+00
 2  1  3     0.0000000000e+00
 2  2  1     0.0000000000e+00
 2  2  2     0.0000000000e+00
 2  2  3     0.0000000000e+00
 2  3  1     0.0000000000e+00
 2  3  2     0.0000000000e+00
 2  3  3     0.0000000000e+00
 3  1  1     0.0000000000e+00
 3  1  2     0.0000000000e+00
 3  1  3     0.0000000000e+00
 3  2  1     0.0000000000e+00
 3  2  2     0.0000000000e+00
 3  2  3     0.0000000000e+00
 3  3  1     0.0000000000e+00
 3  3  2     0.0000000000e+00
 3  3  3     0.0000000000e+00

    2
0.0000000000e+00 0.0000000000e+00 0.0000000000e+00
0.0000000000e+00 0.0000000000e+00 0.0000000000e+00
     1      1      3
 1  1  1     1.5904091134e-01
 1  1  2     5.9448205054e-01
 1  1  3    -8.9678709655e+00
 1  2  1     1.2305115087e+00
 1  2  2    -3.1419814196e-01
 1  2  3     4.6541822455e+00
 1  3  1    -9.0788073845e+00
 1  3  2     5.4971755457e+00
 1  3  3     9.4912619179e+00
 2  1  1     1.2305115087e+00
 2  1  2    -3.1419814196e-01
 2  1  3     4.6541822455e+00
 2  2  1     7.8743719408e-01
 2  2  2    -1.1409314391e+00
 2  2  3    -3.5936842197e+00
 2  3  1     5.4971755457e+00
 2  3  2    -2.7312158217e+00
 2  3  3    -5.4797826228e+00
 3  1  1    -9.0788073845e+00
 3  1  2     5.4971755457e+00
 3  1  3     9.4912619179e+00
 3  2  1     5.4971755457e+00
 3  2  2    -2.7312158217e+00
 3  2  3    -5.4797826228e+00
 3  3  1     9.5671478221e+00
 3  3  2    -5.5235953701e+00
 3  3  3    -1.0006637172e+01

    3
0.0000000000e+00 0.0000000000e+00 0.0000000000e+00
0.0000000000e+00 0.0000000000e+00 0.0000000000e+00
     1      1      4
 1  1  1     0.0000000000e+00
 1  1  2     0.0000000000e+00
 1  1  3    -3.6207368724e-04
 1  2  1     0.0000000000e+00
 1  2  2     0.0000000000e+00
 1  2  3    -6.2984233877e-14
 1  3  1     1.1573164885e-03
 1  3  2     2.0132004879e-13
 1  3  3     0.0000000000e+00
 2  1  1     0.0000000000e+00
 2  1  2     0.0000000000e+00
 2  1  3    -6.2984233877e-14
 2  2  1     0.0000000000e+00
 2  2  2     0.0000000000e+00
 2  2  3    -3.6207368712e-04
 2  3  1     2.0132004879e-13
 2  3  2     1.1573164881e-03
 2  3  3     0.0000000000e+00
 3  1  1     1.1573164885e-03
 3  1  2     2.0132004879e-13
 3  1  3     0.0000000000e+00
 3  2  1     2.0132004879e-13
 3  2  2     1.1573164881e-03
 3  2  3     0.0000000000e+00
 3  3  1     0.0000000000e+00
 3  3  2     0.0000000000e+00
 3  3  3    -3.6513833804e-02

    4
0.0000000000e+00 0.0000000000e+00 0.0000000000e+00
0.0000000000e+00 0.0000000000e+00 0.0000000000e+00
     1      1      5
 1  1  1     1.5904091134e-01
 1  1  2     5.9448205054e-01
 1  1  3     8.9678709655e+00
 1  2  1     1.2305115087e+00
 1  2  2    -3.1419814196e-01
 1  2  3    -4.6541822455e+00
 1  3  1     9.0788073845e+00
 1  3  2    -5.4971755457e+00
 1  3  3     9.4912619179e+00
 2  1  1     1.2305115087e+00
 2  1  2    -3.1419814196e-01
 2  1  3    -4.6541822455e+00
 2  2  1     7.8743719408e-01
 2  2  2    -1.1409314391e+00
 2  2  3     3.5936842197e+00
 2  3  1    -5.4971755457e+00
 2  3  2     2.7312158217e+00
 2  3  3    -5.4797826228e+00
 3  1  1     9.0788073845e+00
 3  1  2    -5.4971755457e+00
 3  1  3     9.4912619179e+00
 3  2  1    -5.4971755457e+00
 3  2  2     2.7312158217e+00
 3  2  3    -5.4797826228e+00
 3  3  1     9.5671478221e+00
 3  3  2    -5.5235953701e+00
 3  3  3     1.0006637172e+01

    5
0.0000000000e+00 0.0000000000e+00 0.0000000000e+00
-3.3189781650e+00 0.0000000000e+00 0.0000000000e+00
     1      1      1
 1  1  1    -1.2718200110e-09
 1  1  2    -9.5533113949e+00
 1  1  3     0.0000000000e+00
 1  2  1     1.1210379944e+00
 1  2  2     1.8917195607e-10
 1  2  3     0.0000000000e+00
 1  3  1     0.0000000000e+00
 1  3  2     0.0000000000e+00
 1  3  3     5.2596204022e-10
 2  1  1     1.1210379944e+00
 2  1  2     1.8917195607e-10
 2  1  3     0.0000000000e+00
 2  2  1     1.8917195607e-10
 2  2  2     1.0874814762e+00
 2  2  3     0.0000000000e+00
 2  3  1     0.0000000000e+00
 2  3  2     0.0000000000e+00
 2  3  3     3.0235664302e+00
 3  1  1     0.0000000000e+00
 3  1  2     0.0000000000e+00
 3  1  3     5.2596204022e-10
 3  2  1     0.0000000000e+00
 3  2  2     0.0000000000e+00
 3  2  3     3.0235664302e+00
 3  3  1     5.2171932142e-11
 3  3  2     2.9991765672e-01
 3  3  3     0.0000000000e+00

    6
0.0000000000e+00 0.0000000000e+00 0.0000000000e+00
3.3189781650e+00 0.0000000000e+00 0.0000000000e+00
     1      1      3
 1  1  1    -1.5904091028e-01
 1  1  2     5.9448205076e-01
 1  1  3    -8.9678709688e+00
 1  2  1     1.2305115085e+00
 1  2  2     3.1419814156e-01
 1  2  3    -4.6541822468e+00
 1  3  1    -9.0788073883e+00
 1  3  2    -5.4971755466e+00
 1  3  3    -9.4912619198e+00
 2  1  1     1.2305115085e+00
 2  1  2     3.1419814156e-01
 2  1  3    -4.6541822468e+00
 2  2  1    -7.8743719448e-01
 2  2  2    -1.1409314391e+00
 2  2  3    -3.5936842197e+00
 2  3  1    -5.4971755466e+00
 2  3  2    -2.7312158217e+00
 2  3  3    -5.4797826228e+00
 3  1  1    -9.0788073883e+00
 3  1  2    -5.4971755466e+00
 3  1  3    -9.4912619198e+00
 3  2  1    -5.4971755466e+00
 3  2  2    -2.7312158217e+00
 3  2  3    -5.4797826228e+00
 3  3  1    -9.5671478240e+00
 3  3  2    -5.5235953701e+00
 3  3  3    -1.0006637172e+01

    7
0.0000000000e+00 0.0000000000e+00 0.0000000000e+00
-3.3189781650e+00 0.0000000000e+00 0.0000000000e+00
     1      1      4
 1  1  1     7.6653459593e-13
 1  1  2    -1.1640178203e-03
 1  1  3     1.4630823519e-01
 1  2  1     2.7852746353e-03
 1  2  2     2.4348983219e-13
 1  2  3     2.3569141778e-11
 1  3  1    -1.0587143022e-03
 1  3  2    -1.3463054204e-12
 1  3  3    -1.9312794364e-23
 2  1  1     2.7852746353e-03
 2  1  2     2.4348983219e-13
 2  1  3     2.3569141778e-11
 2  2  1     2.4348983219e-13
 2  2  2     1.3997353923e-03
 2  2  3     1.3549051152e-01
 2  3  1    -1.3463054204e-12
 2  3  2    -7.7394252108e-03
 2  3  3    -1.1102230246e-13
 3  1  1    -1.0587143022e-03
 3  1  2    -1.3463054204e-12
 3  1  3    -1.9312794364e-23
 3  2  1    -1.3463054204e-12
 3  2  2    -7.7394252108e-03
 3  2  3    -1.1102230246e-13
 3  3  1    -6.1831473822e-13
 3  3  2    -3.5544688454e-03
 3  3  3    -1.4918947355e-02

    8
0.0000000000e+00 0.0000000000e+00 0.0000000000e+00
3.3189781650e+00 0.0000000000e+00 0.0000000000e+00
     1      1      5
 1  1  1    -1.5904091028e-01
 1  1  2     5.9448205076e-01
 1  1  3     8.9678709688e+00
 1  2  1     1.2305115085e+00
 1  2  2     3.1419814156e-01
 1  2  3     4.6541822468e+00
 1  3  1     9.0788073883e+00
 1  3  2     5.4971755466e+00
 1  3  3    -9.4912619198e+00
 2  1  1     1.2305115085e+00
 2  1  2     3.1419814156e-01
 2  1  3     4.6541822468e+00
 2  2  1    -7.8743719448e-01
 2  2  2    -1.1409314391e+00
 2  2  3     3.5936842197e+00
 2  3  1     5.4971755466e+00
 2  3  2     2.7312158217e+00
 2  3  3    -5.4797826228e+00
 3  1  1     9.0788073883e+00
 3  1  2     5.4971755466e+00
 3  1  3    -9.4912619198e+00
 3  2  1     5.4971755466e+00
 3  2  2     2.7312158217e+00
 3  2  3    -5.4797826228e+00
 3  3  1    -9.5671478240e+00
 3  3  2    -5.5235953701e+00
 3  3  3     1.0006637172e+01

    9
0.0000000000e+00 0.0000000000e+00 0.0000000000e+00
-1.6594890820e+00 2.8743194050e+00 0.0000000000e+00
     1      1      1
 1  1  1     8.7658895918e-01
 1  1  2     1.6271368654e+00
 1  1  3     0.0000000000e+00
 1  2  1    -3.7100378276e+00
 1  2  2    -2.7892229257e+00
 1  2  3     0.0000000000e+00
 1  3  1     0.0000000000e+00
 1  3  2     0.0000000000e+00
 1  3  3    -2.6184853393e+00
 2  1  1    -3.7100378276e+00
 2  1  2    -2.7892229257e+00
 2  1  3     0.0000000000e+00
 2  2  1     6.4550348126e+00
 2  2  2     2.6057780918e+00
 2  2  3     0.0000000000e+00
 2  3  1     0.0000000000e+00
 2  3  2     0.0000000000e+00
 2  3  3    -1.5117832151e+00
 3  1  1     0.0000000000e+00
 3  1  2     0.0000000000e+00
 3  1  3    -2.6184853393e+00
 3  2  1     0.0000000000e+00
 3  2  2     0.0000000000e+00
 3  2  3    -1.5117832151e+00
 3  3  1    -2.5973630984e-01
 3  3  2    -1.4995882836e-01
 3  3  3     0.0000000000e+00

   10
0.0000000000e+00 0.0000000000e+00 0.0000000000e+00
1.6594890820e+00 -2.8743194050e+00 0.0000000000e+00
     1      1      3
 1  1  1     5.7943657103e-10
 1  1  2     1.9583632791e+00
 1  1  3    -9.0659084777e-01
 1  2  1     6.8630436331e-01
 1  2  2    -1.5055107273e-10
 1  2  3    -2.0274306786e-09
 1  3  1     4.4257995929e-01
 1  3  2    -2.1313923579e-09
 1  3  3     1.9064622336e-09
 2  1  1     6.8630436331e-01
 2  1  2    -1.5055100836e-10
 2  1  3    -2.0274296452e-09
 2  2  1    -1.5055092713e-10
 2  2  2    -8.6546450121e-01
 2  2  3    -1.1654964336e+01
 2  3  1    -2.1313908322e-09
 2  3  2    -1.2252603164e+01
 2  3  3     1.0959565246e+01
 3  1  1     4.4257995929e-01
 3  1  2    -2.1313923579e-09
 3  1  3     1.9064622336e-09
 3  2  1    -2.1313911373e-09
 3  2  2    -1.2252603164e+01
 3  2  3     1.0959565246e+01
 3  3  1     1.9217050550e-09
 3  3  2     1.1047190740e+01
 3  3  3    -1.0006637172e+01

   11
0.0000000000e+00 0.0000000000e+00 0.0000000000e+00
-1.6594890820e+00 2.8743194050e+00 0.0000000000e+00
     1      1      4
 1  1  1    -1.8631968513e-03
 1  1  2     1.7095574311e-03
 1  1  3     1.3819494247e-01
 1  2  1    -2.6508879610e-04
 1  2  2    -1.7611281482e-03
 1  2  3    -4.6842117084e-03
 1  3  1    -6.0692474867e-03
 1  3  2    -2.8928326822e-03
 1  3  3     9.6148134344e-14
 2  1  1    -2.6508879610e-04
 2  1  2    -1.7611281482e-03
 2  1  3    -4.6842117084e-03
 2  2  1     1.6590594446e-03
 2  2  2    -1.8274162173e-03
 2  2  3     1.4360380423e-01
 2  3  1    -2.8928326822e-03
 2  3  2    -2.7288920291e-03
 2  3  3     5.5511151231e-14
 3  1  1    -6.0692474867e-03
 3  1  2    -2.8928326822e-03
 3  1  3     9.6148134344e-14
 3  2  1    -2.8928326822e-03
 3  2  2    -2.7288920291e-03
 3  2  3     5.5511151231e-14
 3  3  1     3.0782603179e-03
 3  3  2     1.7772344227e-03
 3  3  3    -1.4918947355e-02

   12
0.0000000000e+00 0.0000000000e+00 0.0000000000e+00
1.6594890820e+00 -2.8743194050e+00 0.0000000000e+00
     1      1      5
 1  1  1     5.7943657103e-10
 1  1  2     1.9583632791e+00
 1  1  3     9.0659084777e-01
 1  2  1     6.8630436331e-01
 1  2  2    -1.5055107273e-10
 1  2  3     2.0274306786e-09
 1  3  1    -4.4257995929e-01
 1  3  2     2.1313923579e-09
 1  3  3     1.9064622336e-09
 2  1  1     6.8630436331e-01
 2  1  2    -1.5055100836e-10
 2  1  3     2.0274296452e-09
 2  2  1    -1.5055092713e-10
 2  2  2    -8.6546450121e-01
 2  2  3     1.1654964336e+01
 2  3  1     2.1313908322e-09
 2  3  2     1.2252603164e+01
 2  3  3     1.0959565246e+01
 3  1  1    -4.4257995929e-01
 3  1  2     2.1313923579e-09
 3  1  3     1.9064622336e-09
 3  2  1     2.1313911373e-09
 3  2  2     1.2252603164e+01
 3  2  3     1.0959565246e+01
 3  3  1     1.9217050550e-09
 3  3  2     1.1047190740e+01
 3  3  3     1.0006637172e+01

   13
0.0000000000e+00 0.0000000000e+00 0.0000000000e+00
1.6594890830e+00 2.8743194050e+00 0.0000000000e+00
     1      1      1
 1  1  1    -8.7658896119e-01
 1  1  2     1.6271368674e+00
 1  1  3     0.0000000000e+00
 1  2  1    -3.7100378288e+00
 1  2  2     2.7892229266e+00
 1  2  3     0.0000000000e+00
 1  3  1     0.0000000000e+00
 1  3  2     0.0000000000e+00
 1  3  3     2.6184853388e+00
 2  1  1    -3.7100378288e+00
 2  1  2     2.7892229266e+00
 2  1  3     0.0000000000e+00
 2  2  1    -6.4550348117e+00
 2  2  2     2.6057780918e+00
 2  2  3     0.0000000000e+00
 2  3  1     0.0000000000e+00
 2  3  2     0.0000000000e+00
 2  3  3    -1.5117832151e+00
 3  1  1     0.0000000000e+00
 3  1  2     0.0000000000e+00
 3  1  3     2.6184853388e+00
 3  2  1     0.0000000000e+00
 3  2  2     0.0000000000e+00
 3  2  3    -1.5117832151e+00
 3  3  1     2.5973630978e-01
 3  3  2    -1.4995882836e-01
 3  3  3     0.0000000000e+00

   14
0.0000000000e+00 0.0000000000e+00 0.0000000000e+00
4.9784672470e+00 -2.8743194050e+00 0.0000000000e+00
     1      1      3
 1  1  1     0.0000000000e+00
 1  1  2     0.0000000000e+00
 1  1  3    -1.1892014360e+00
 1  2  1     0.0000000000e+00
 1  2  2     0.0000000000e+00
 1  2  3    -2.0686656891e-10
 1  3  1     5.0888563194e-01
 1  3  2     8.8522786351e-11
 1  3  3     0.0000000000e+00
 2  1  1     0.0000000000e+00
 2  1  2     0.0000000000e+00
 2  1  3    -2.0686656891e-10
 2  2  1     0.0000000000e+00
 2  2  2     0.0000000000e+00
 2  2  3    -1.1892014356e+00
 2  3  1     8.8522786351e-11
 2  3  2     5.0888563177e-01
 2  3  3     0.0000000000e+00
 3  1  1     5.0888563194e-01
 3  1  2     8.8522786351e-11
 3  1  3     0.0000000000e+00
 3  2  1     8.8522786351e-11
 3  2  2     5.0888563177e-01
 3  2  3     0.0000000000e+00
 3  3  1     0.0000000000e+00
 3  3  2     0.0000000000e+00
 3  3  3    -4.1851051778e-01

   15
0.0000000000e+00 0.0000000000e+00 0.0000000000e+00
1.6594890830e+00 2.8743194050e+00 0.0000000000e+00
     1      1      4
 1  1  1     1.8631968517e-03
 1  1  2     1.7095574323e-03
 1  1  3     1.3819494247e-01
 1  2  1    -2.6508879606e-04
 1  2  2     1.7611281476e-03
 1  2  3     4.6842117584e-03
 1  3  1    -6.0692474847e-03
 1  3  2     2.8928326813e-03
 1  3  3    -9.6148134325e-14
 2  1  1    -2.6508879606e-04
 2  1  2     1.7611281476e-03
 2  1  3     4.6842117584e-03
 2  2  1    -1.6590594453e-03
 2  2  2    -1.8274162173e-03
 2  2  3     1.4360380423e-01
 2  3  1     2.8928326813e-03
 2  3  2    -2.7288920291e-03
 2  3  3     5.5511151231e-14
 3  1  1    -6.0692474847e-03
 3  1  2     2.8928326813e-03
 3  1  3    -9.6148134325e-14
 3  2  1     2.8928326813e-03
 3  2  2    -2.7288920291e-03
 3  2  3     5.5511151231e-14
 3  3  1    -3.0782603173e-03
 3  3  2     1.7772344227e-03
 3  3  3    -1.4918947355e-02

   16
0.0000000000e+00 0.0000000000e+00 0.0000000000e+00
4.9784672470e+00 -2.8743194050e+00 0.0000000000e+00
     1      1      5
 1  1  1     0.0000000000e+00
 1  1  2     0.0000000000e+00
 1  1  3     1.1892014360e+00
 1  2  1     0.0000000000e+00
 1  2  2     0.0000000000e+00
 1  2  3     2.0686636776e-10
 1  3  1    -5.0888563194e-01
 1  3  2    -8.8522700276e-11
 1  3  3     0.0000000000e+00
 2  1  1     0.0000000000e+00
 2  1  2     0.0000000000e+00
 2  1  3     2.0686636776e-10
 2  2  1     0.0000000000e+00
 2  2  2     0.0000000000e+00
 2  2  3     1.1892014356e+00
 2  3  1    -8.8522700276e-11
 2  3  2    -5.0888563177e-01
 2  3  3     0.0000000000e+00
 3  1  1    -5.0888563194e-01
 3  1  2    -8.8522700276e-11
 3  1  3     0.0000000000e+00
 3  2  1    -8.8522700276e-11
 3  2  2    -5.0888563177e-01
 3  2  3     0.0000000000e+00
 3  3  1     0.0000000000e+00
 3  3  2     0.0000000000e+00
 3  3  3     4.1851051778e-01

   17
0.0000000000e+00 0.0000000000e+00 0.0000000000e+00
0.0000000000e+00 0.0000000000e+00 1.5082539141e+01
     1      1      6
 1  1  1     0.0000000000e+00
 1  1  2     0.0000000000e+00
 1  1  3     3.6207368724e-04
 1  2  1     0.0000000000e+00
 1  2  2     0.0000000000e+00
 1  2  3     6.2984172634e-14
 1  3  1    -1.1573164885e-03
 1  3  2    -2.0131985304e-13
 1  3  3     0.0000000000e+00
 2  1  1     0.0000000000e+00
 2  1  2     0.0000000000e+00
 2  1  3     6.2984172634e-14
 2  2  1     0.0000000000e+00
 2  2  2     0.0000000000e+00
 2  2  3     3.6207368712e-04
 2  3  1    -2.0131985304e-13
 2  3  2    -1.1573164881e-03
 2  3  3     0.0000000000e+00
 3  1  1    -1.1573164885e-03
 3  1  2    -2.0131985304e-13
 3  1  3     0.0000000000e+00
 3  2  1    -2.0131985304e-13
 3  2  2    -1.1573164881e-03
 3  2  3     0.0000000000e+00
 3  3  1     0.0000000000e+00
 3  3  2     0.0000000000e+00
 3  3  3     3.6513833804e-02

   18
0.0000000000e+00 0.0000000000e+00 0.0000000000e+00
-3.3189781650e+00 0.0000000000e+00 1.5082539141e+01
     1      1      6
 1  1  1     7.6653459593e-13
 1  1  2    -1.1640178203e-03
 1  1  3    -1.4630823519e-01
 1  2  1     2.7852746353e-03
 1  2  2     2.4348983219e-13
 1  2  3    -2.3569141778e-11
 1  3  1     1.0587143022e-03
 1  3  2     1.3463054204e-12
 1  3  3    -1.9312794364e-23
 2  1  1     2.7852746353e-03
 2  1  2     2.4348983219e-13
 2  1  3    -2.3569141778e-11
 2  2  1     2.4348983219e-13
 2  2  2     1.3997353923e-03
 2  2  3    -1.3549051152e-01
 2  3  1     1.3463054204e-12
 2  3  2     7.7394252108e-03
 2  3  3    -1.1102230246e-13
 3  1  1     1.0587143022e-03
 3  1  2     1.3463054204e-12
 3  1  3    -1.9312794364e-23
 3  2  1     1.3463054204e-12
 3  2  2     7.7394252108e-03
 3  2  3    -1.1102230246e-13
 3  3  1    -6.1831473822e-13
 3  3  2    -3.5544688454e-03
 3  3  3     1.4918947355e-02

   19
0.0000000000e+00 0.0000000000e+00 0.0000000000e+00
-1.6594890820e+00 2.8743194050e+00 1.5082539141e+01
     1      1      6
 1  1  1    -1.8631968513e-03
 1  1  2     1.7095574311e-03
 1  1  3    -1.3819494247e-01
 1  2  1    -2.6508879610e-04
 1  2  2    -1.7611281482e-03
 1  2  3     4.6842117084e-03
 1  3  1     6.0692474867e-03
 1  3  2     2.8928326822e-03
 1  3  3     9.6148134344e-14
 2  1  1    -2.6508879610e-04
 2  1  2    -1.7611281482e-03
 2  1  3     4.6842117084e-03
 2  2  1     1.6590594446e-03
 2  2  2    -1.8274162173e-03
 2  2  3    -1.4360380423e-01
 2  3  1     2.8928326822e-03
 2  3  2     2.7288920291e-03
 2  3  3     5.5511151231e-14
 3  1  1     6.0692474867e-03
 3  1  2     2.8928326822e-03
 3  1  3     9.6148134344e-14
 3  2  1     2.8928326822e-03
 3  2  2     2.7288920291e-03
 3  2  3     5.5511151231e-14
 3  3  1     3.0782603179e-03
 3  3  2     1.7772344227e-03
 3  3  3     1.4918947355e-02

   20
0.0000000000e+00 0.0000000000e+00 0.0000000000e+00
1.6594890830e+00 2.8743194050e+00 1.5082539141e+01
     1      1      6
 1  1  1     1.8631968517e-03
 1  1  2     1.7095574323e-03
 1  1  3    -1.3819494247e-01
 1  2  1    -2.6508879606e-04
 1  2  2     1.7611281476e-03
 1  2  3    -4.6842117584e-03
 1  3  1     6.0692474847e-03
 1  3  2    -2.8928326813e-03
 1  3  3    -9.6148134325e-14
 2  1  1    -2.6508879606e-04
 2  1  2     1.7611281476e-03
 2  1  3    -4.6842117584e-03
 2  2  1    -1.6590594453e-03
 2  2  2    -1.8274162173e-03
 2  2  3    -1.4360380423e-01
 2  3  1    -2.8928326813e-03
 2  3  2     2.7288920291e-03
 2  3  3     5.5511151231e-14
 3  1  1     6.0692474847e-03
 3  1  2    -2.8928326813e-03
 3  1  3    -9.6148134325e-14
 3  2  1    -2.8928326813e-03
 3  2  2     2.7288920291e-03
 3  2  3     5.5511151231e-14
 3  3  1    -3.0782603173e-03
 3  3  2     1.7772344227e-03
 3  3  3     1.4918947355e-02

   21
0.0000000000e+00 0.0000000000e+00 0.0000000000e+00
0.0000000000e+00 0.0000000000e+00 0.0000000000e+00
     1      3      1
 1  1  1     1.5904091134e-01
 1  1  2     1.2305115087e+00
 1  1  3    -9.0788073845e+00
 1  2  1     5.9448205054e-01
 1  2  2    -3.1419814196e-01
 1  2  3     5.4971755457e+00
 1  3  1    -8.9678709655e+00
 1  3  2     4.6541822455e+00
 1  3  3     9.4912619179e+00
 2  1  1     1.2305115087e+00
 2  1  2     7.8743719408e-01
 2  1  3     5.4971755457e+00
 2  2  1    -3.1419814196e-01
 2  2  2    -1.1409314391e+00
 2  2  3    -2.7312158217e+00
 2  3  1     4.6541822455e+00
 2  3  2    -3.5936842197e+00
 2  3  3    -5.4797826228e+00
 3  1  1    -9.0788073845e+00
 3  1  2     5.4971755457e+00
 3  1  3     9.5671478221e+00
 3  2  1     5.4971755457e+00
 3  2  2    -2.7312158217e+00
 3  2  3    -5.5235953701e+00
 3  3  1     9.4912619179e+00
 3  3  2    -5.4797826228e+00
 3  3  3    -1.0006637172e+01

   22
0.0000000000e+00 0.0000000000e+00 0.0000000000e+00
0.0000000000e+00 0.0000000000e+00 0.0000000000e+00
     1      3      3
 1  1  1     6.3325406341e-01
 1  1  2    -4.5095074994e-01
 1  1  3     1.1251614411e+01
 1  2  1    -4.5095074994e-01
 1  2  2    -4.8771623584e-02
 1  2  3    -6.2632282609e+00
 1  3  1     1.1251614411e+01
 1  3  2    -6.2632282609e+00
 1  3  3    -1.1546176601e+01
 2  1  1    -2.2590858286e-01
 2  1  2     3.4101284346e-01
 2  1  3    -6.2632282609e+00
 2  2  1     3.4101284346e-01
 2  2  2    -1.1154251100e-01
 2  2  3     4.0194613652e+00
 2  3  1    -6.2632282609e+00
 2  3  2     4.0194613652e+00
 2  3  3     6.6661881681e+00
 3  1  1     9.8407171831e+00
 3  1  2    -5.5542493645e+00
 3  1  3    -1.1003987761e+01
 3  2  1    -5.5542493645e+00
 3  2  2     3.4272224506e+00
 3  2  3     6.3531552958e+00
 3  3  1    -1.1003987761e+01
 3  3  2     6.3531552958e+00
 3  3  3     1.2789581807e+01

   23
0.0000000000e+00 0.0000000000e+00 0.0000000000e+00
0.0000000000e+00 0.0000000000e+00 0.0000000000e+00
     1      3      5
 1  1  1    -4.4285013120e-01
 1  1  2     9.7401949322e-02
 1  1  3    -2.1434975431e-01
 1  2  1     9.7401949322e-02
 1  2  2     2.8935850525e-02
 1  2  3    -1.5927452897e-01
 1  3  1     2.1434975431e-01
 1  3  2     1.5927452897e-01
 1  3  3     7.6033518339e-01
 2  1  1    -5.5497053535e-02
 2  1  2    -2.3589299072e-01
 2  1  3    -1.5927452897e-01
 2  2  1    -2.3589299072e-01
 2  2  2     2.9447057472e-01
 2  2  3    -3.9826413842e-01
 2  3  1     1.5927452897e-01
 2  3  2     3.9826413842e-01
 2  3  3    -4.3897972278e-01
 3  1  1     0.0000000000e+00
 3  1  2     0.0000000000e+00
 3  1  3     6.3231458560e-01
 3  2  1     0.0000000000e+00
 3  2  2     0.0000000000e+00
 3  2  3    -3.6506699618e-01
 3  3  1     6.3231458560e-01
 3  3  2    -3.6506699618e-01
 3  3  3     0.0000000000e+00

   24
0.0000000000e+00 0.0000000000e+00 0.0000000000e+00
-3.3189781650e+00 0.0000000000e+00 0.0000000000e+00
     1      3      1
 1  1  1     1.5167251441e-10
 1  1  2     9.6145411564e-01
 1  1  3    -2.2494497900e-01
 1  2  1    -1.0509975459e+00
 1  2  2     8.3013316070e-02
 1  2  3     7.7133721042e-03
 1  3  1    -1.2235981536e+00
 1  3  2     4.4158698478e-01
 1  3  3     4.0040855497e-01
 2  1  1     9.6145411561e-01
 2  1  2     9.0105797069e-12
 2  1  3     2.0187431860e-01
 2  2  1    -8.3013316052e-02
 2  2  2     5.1798579052e-02
 2  2  3    -1.8058726773e-01
 2  3  1    -4.4158698519e-01
 2  3  2    -1.1734165297e+00
 2  3  3    -1.0912290964e+00
 3  1  1    -2.2494497907e-01
 3  1  2    -2.0187431866e-01
 3  1  3    -2.7936241830e-10
 3  2  1    -7.7133721670e-03
 3  2  2    -1.8058726773e-01
 3  2  3    -1.6059539763e+00
 3  3  1    -4.0040855535e-01
 3  3  2    -1.0912290964e+00
 3  3  3    -1.9461481020e+00

   25
0.0000000000e+00 0.0000000000e+00 0.0000000000e+00
3.3189781650e+00 0.0000000000e+00 0.0000000000e+00
     1      3      3
 1  1  1    -1.5722299088e-10
 1  1  2    -6.6784576608e-02
 1  1  3    -5.7962106469e-01
 1  2  1    -6.6784576509e-02
 1  2  2     5.2361840479e-12
 1  2  3     1.4271920766e-01
 1  3  1    -5.7962106458e-01
 1  3  2    -1.4271920754e-01
 1  3  3     2.0298997235e-11
 2  1  1    -7.7024922349e-01
 2  1  2    -2.8445423226e-01
 2  1  3    -4.6961999847e-01
 2  2  1     2.8445423227e-01
 2  2  2     3.0100937138e-02
 2  2  3     3.5110319149e-01
 2  3  1     4.6961999859e-01
 2  3  2     3.5110319149e-01
 2  3  3     1.1669162775e-01
 3  1  1     8.7459170097e-02
 3  1  2    -4.1137652195e-01
 3  1  3    -5.3554015571e-01
 3  2  1     4.1137652187e-01
 3  2  2    -2.3196577110e-01
 3  2  3     3.6999322130e-01
 3  3  1     5.3554015584e-01
 3  3  2     3.6999322130e-01
 3  3  3     6.0363633258e-01

   26
0.0000000000e+00 0.0000000000e+00 0.0000000000e+00
3.3189781650e+00 0.0000000000e+00 0.0000000000e+00
     1      3      5
 1  1  1    -9.4611166821e-11
 1  1  2    -6.3194664360e-02
 1  1  3    -3.7350515223e-01
 1  2  1    -6.3194664093e-02
 1  2  2     1.4824138847e-10
 1  2  3     2.1213108038e-01
 1  3  1     3.7350515248e-01
 1  3  2     2.1213108047e-01
 1  3  3     1.6653560367e-11
 2  1  1    -4.1749621117e-01
 2  1  2    -7.6756874307e-01
 2  1  3     5.0466424182e-01
 2  2  1     7.6756874337e-01
 2  2  2     8.5218637752e-01
 2  2  3    -2.4501674281e-01
 2  3  1     5.0466424190e-01
 2  3  2     2.4501674281e-01
 2  3  3     9.5735323501e-02
 3  1  1     3.4436410690e-11
 3  1  2     9.8981264216e-02
 3  1  3     1.2340722410e-01
 3  2  1     9.8981264216e-02
 3  2  2     0.0000000000e+00
 3  2  3    -2.3150160131e-02
 3  3  1    -1.2340722411e-01
 3  3  2    -2.3150160131e-02
 3  3  3     0.0000000000e+00

   27
0.0000000000e+00 0.0000000000e+00 0.0000000000e+00
-1.6594890820e+00 2.8743194050e+00 0.0000000000e+00
     1      3      1
 1  1  1    -2.2241836481e-01
 1  1  2    -1.0129337729e-01
 1  1  3    -2.8243082785e-01
 1  2  1     8.3304081257e-01
 1  2  2    -6.1357755111e-01
 1  2  3     1.6868484831e-01
 1  3  1    -1.1859619360e+00
 1  3  2    -4.1985770481e-01
 1  3  3     1.1452363966e+00
 2  1  1    -2.4507665845e-01
 2  1  2     1.0877500533e+00
 2  1  3    -2.5476098185e-02
 2  2  1    -6.9659086718e-01
 2  2  2    -3.3344132928e-01
 2  2  3    -1.2310141890e-01
 2  3  1     4.6331626516e-01
 2  3  2    -1.2110527473e+00
 2  3  3     1.9885056762e-01
 3  1  1    -1.0092256334e-01
 3  1  2     6.3891002894e-02
 3  1  3     1.3907969411e+00
 3  2  1    -1.3026994360e-01
 3  2  2    -3.0460968339e-01
 3  2  3     8.0297698813e-01
 3  3  1     7.4482784161e-01
 3  3  2     8.9237852882e-01
 3  3  3    -1.9461481020e+00

   28
0.0000000000e+00 0.0000000000e+00 0.0000000000e+00
1.6594890820e+00 -2.8743194050e+00 0.0000000000e+00
     1      3      3
 1  1  1     1.7613128638e-01
 1  1  2    -5.6317204575e-01
 1  1  3     2.5997432242e-01
 1  2  1    -7.0482862902e-02
 1  2  2     4.6485593207e-01
 1  2  3     1.5120623962e-02
 1  3  1    -2.3130067040e-02
 1  3  2     7.9091022560e-01
 1  3  3    -1.0105791407e-01
 2  1  1     3.4904869037e-02
 2  1  2    -2.8658943887e-01
 2  1  3     6.2745983009e-01
 2  2  1    -2.1352066039e-03
 2  2  2     3.3516927397e-01
 2  2  3    -4.8849219516e-01
 2  3  1     1.7857101948e-01
 2  3  2    -2.0538780575e-01
 2  3  3    -5.8345813874e-02
 3  1  1    -1.5210953591e-01
 3  1  2     2.7306146506e-01
 3  1  3    -5.8819360677e-01
 3  2  1    -5.4969157876e-01
 3  2  2     7.6029347740e-03
 3  2  3     2.7879476892e-01
 3  3  1    -5.2653451157e-02
 3  3  2    -6.4878799022e-01
 3  3  3     6.0363633258e-01

   29
0.0000000000e+00 0.0000000000e+00 0.0000000000e+00
1.6594890820e+00 -2.8743194050e+00 0.0000000000e+00
     1      3      5
 1  1  1    -4.3575661574e-01
 1  1  2    -1.1566636679e+00
 1  1  3    -5.8752032444e-01
 1  2  1     1.7280439400e-01
 1  2  2     5.9303888363e-02
 1  2  3     3.8110252461e-01
 1  3  1    -3.3242633954e-02
 1  3  2     2.6982829807e-01
 1  3  3    -8.2909222214e-02
 2  1  1    -3.1477886354e-01
 2  1  2    -6.3131462345e-01
 2  1  3     8.8569363178e-02
 2  2  1     1.3625411977e-01
 2  2  2     9.7433780100e-02
 2  2  3    -3.1001570718e-02
 2  3  1    -2.2704863362e-02
 2  3  2     6.5176452902e-01
 2  3  3    -4.7867661750e-02
 3  1  1    -8.5720289307e-02
 3  1  2     4.9490632123e-02
 3  1  3     8.1752238815e-02
 3  2  1     4.9490632123e-02
 3  2  2     8.5720289295e-02
 3  2  3    -9.5298711002e-02
 3  3  1    -4.1654985253e-02
 3  3  2     1.1844887113e-01
 3  3  3     0.0000000000e+00

   30
0.0000000000e+00 0.0000000000e+00 0.0000000000e+00
-1.6594890830e+00 -2.8743194050e+00 0.0000000000e+00
     1      3      1
 1  1  1     2.1571050464e-01
 1  1  2     1.6479834862e-01
 1  1  3    -4.4269165807e-01
 1  2  1     2.0320694613e-02
 1  2  2     1.7047542043e-01
 1  2  3    -6.2988860081e-02
 1  3  1     2.6100494966e-01
 1  3  2     2.9916756587e-01
 1  3  3    -2.1629844871e-01
 2  1  1     7.1937356600e-03
 2  1  2     1.4773886058e-01
 2  1  3    -6.2988860081e-02
 2  2  1    -1.0250377659e-01
 2  2  2    -2.3015828337e-01
 2  2  3    -5.1542492843e-01
 2  3  1     2.9916756587e-01
 2  3  2     6.0645389865e-01
 2  3  3     1.2487996758e-01
 3  1  1    -2.1346811723e-01
 3  1  2     1.0483175264e-01
 3  1  3     6.5427735601e-01
 3  2  1     1.0483175264e-01
 3  2  2    -9.2418835983e-02
 3  2  3    -3.7774720759e-01
 3  3  1     7.1219158817e-02
 3  3  2    -4.1118400511e-02
 3  3  3    -2.4749045993e-01

   31
0.0000000000e+00 0.0000000000e+00 0.0000000000e+00
1.6594890830e+00 2.8743194050e+00 0.0000000000e+00
     1      3      3
 1  1  1    -1.0316296112e-01
 1  1  2     1.9694140110e-01
 1  1  3     2.1051581005e-01
 1  2  1     1.0641965766e-02
 1  2  2     3.0419485498e-01
 1  2  3    -2.2507823489e-02
 1  3  1     8.4672221316e-02
 1  3  2    -1.0880389381e-01
 1  3  3     1.6669853376e-01
 2  1  1    -1.8942937048e-01
 2  1  2    -4.2338864382e-02
 2  1  3    -2.2507823489e-02
 2  2  1    -3.6501895165e-01
 2  2  2     7.3363552325e-02
 2  2  3     1.8452601405e-01
 2  3  1    -1.0880389381e-01
 2  3  2    -4.0963693402e-02
 2  3  3    -9.6243443333e-02
 3  1  1     6.9578960230e-02
 3  1  2    -3.9069066592e-02
 3  1  3    -3.3525413862e-01
 3  2  1    -3.9069066592e-02
 3  2  2     2.4465887995e-02
 3  2  3     1.9355906716e-01
 3  3  1     1.1911055407e-01
 3  3  2    -6.8768510451e-02
 3  3  3     3.6917229544e-01

   32
0.0000000000e+00 0.0000000000e+00 0.0000000000e+00
1.6594890830e+00 2.8743194050e+00 0.0000000000e+00
     1      3      5
 1  1  1     2.1660607969e-02
 1  1  2    -2.5107101545e-01
 1  1  3     5.9508603968e-02
 1  2  1    -2.7132464842e-02
 1  2  2    -1.3511806556e-01
 1  2  3     9.8865235238e-02
 1  3  1    -1.7112903066e-01
 1  3  2     1.0801419725e-01
 1  3  3    -1.1133827741e-02
 2  1  1    -1.5833183857e-02
 2  1  2    -1.1554713681e-01
 2  1  3     9.8865235238e-02
 2  2  1     2.7232581043e-01
 2  2  2     8.1337877532e-02
 2  2  3     1.7366834422e-01
 2  3  1     1.0801419725e-01
 2  3  2    -4.6404978933e-02
 2  3  3     6.4281184430e-03
 3  1  1    -1.4313569774e-01
 3  1  2     1.2340249042e-01
 3  1  3     1.3357830202e-02
 3  2  1     1.2340249042e-01
 3  2  2    -6.4277562609e-04