   0.34103E+01   0.31688E-03   0.31688E-03   0.31651E-03   0.31651E-03
   0.68205E+01   0.71952E-03   0.71952E-03   0.71779E-03   0.71779E-03
   0.10231E+02   0.13761E-02   0.13761E-02   0.13708E-02   0.13708E-02
   0.13641E+02   0.20031E-02   0.20031E-02   0.19931E-02   0.19931E-02
   0.17051E+02   0.26436E-02   0.26436E-02   0.26274E-02   0.26274E-02
   0.20462E+02   0.30817E-02   0.30817E-02   0.30604E-02   0.30604E-02
   0.23872E+02   0.52760E-02   0.52760E-02   0.52271E-02   0.52271E-02
   0.27282E+02   0.52042E-02   0.52042E-02   0.51540E-02   0.51540E-02
   0.30692E+02   0.70072E-02   0.70072E-02   0.69273E-02   0.69273E-02
   0.34103E+02   0.83642E-02   0.83642E-02   0.82806E-02   0.82806E-02
   0.37513E+02   0.70144E-02   0.70144E-02   0.69680E-02   0.69680E-02
   0.40923E+02   0.67075E-02   0.67075E-02   0.66740E-02   0.66740E-02
   0.44334E+02   0.66535E-02   0.66535E-02   0.66281E-02   0.66281E-02
   0.47744E+02   0.67061E-02   0.67061E-02   0.66872E-02   0.66872E-02
   0.51154E+02   0.68564E-02   0.68564E-02   0.68430E-02   0.68430E-02
   0.54564E+02   0.70152E-02   0.70152E-02   0.70072E-02   0.70072E-02
   0.57975E+02   0.72579E-02   0.72579E-02   0.72550E-02   0.72550E-02
   0.61385E+02   0.75101E-02   0.75101E-02   0.75127E-02   0.75127E-02
   0.64795E+02   0.78474E-02   0.78474E-02   0.78555E-02   0.78555E-02
   0.68205E+02   0.81815E-02   0.81815E-02   0.81958E-02   0.81958E-02
   0.71616E+02   0.86160E-02   0.86160E-02   0.86372E-02   0.86372E-02
   0.75026E+02   0.91102E-02   0.91102E-02   0.91396E-02   0.91396E-02
   0.78436E+02   0.97369E-02   0.97369E-02   0.97757E-02   0.97757E-02
   0.81847E+02   0.10537E-01   0.10537E-01   0.10588E-01   0.10588E-01
   0.85257E+02   0.11757E-01   0.11757E-01   0.11823E-01   0.11823E-01
   0.88667E+02   0.14522E-01   0.14522E-01   0.14594E-01   0.14594E-01
   0.92077E+02   0.16808E-01   0.16808E-01   0.17527E-01   0.17527E-01
   0.95488E+02   0.71911E-02   0.71911E-02   0.72099E-02   0.72099E-02
   0.98898E+02   0.57297E-02   0.57297E-02   0.57154E-02   0.57154E-02
   0.10231E+03   0.55274E-02   0.55274E-02   0.55214E-02   0.55214E-02
   0.10572E+03   0.73706E-02   0.73706E-02   0.73174E-02   0.73174E-02
   0.10913E+03   0.96017E-02   0.96017E-02   0.95196E-02   0.95196E-02
   0.11254E+03   0.12559E-01   0.12559E-01   0.12428E-01   0.12428E-01
   0.11595E+03   0.18362E-01   0.18362E-01   0.18080E-01   0.18080E-01
   0.11936E+03   0.23021E-01   0.23021E-01   0.22712E-01   0.22712E-01
   0.12277E+03   0.17016E-01   0.17016E-01   0.16803E-01   0.16803E-01
   0.12618E+03   0.15420E-01   0.15420E-01   0.15252E-01   0.15252E-01
   0.12959E+03   0.14441E-01   0.14441E-01   0.14303E-01   0.14303E-01
   0.13300E+03   0.13955E-01   0.13955E-01   0.13839E-01   0.13839E-01
   0.13641E+03   0.13622E-01   0.13622E-01   0.13525E-01   0.13525E-01
   0.13982E+03   0.13442E-01   0.13442E-01   0.13359E-01   0.13359E-01
   0.14323E+03   0.13357E-01   0.13357E-01   0.13291E-01   0.13291E-01
   0.14664E+03   0.13403E-01   0.13403E-01   0.13354E-01   0.13354E-01
   0.15005E+03   0.13658E-01   0.13658E-01   0.13628E-01   0.13628E-01
   0.15346E+03   0.14040E-01   0.14040E-01   0.14032E-01   0.14032E-01
   0.15687E+03   0.14720E-01   0.14720E-01   0.14740E-01   0.14740E-01
   0.16028E+03   0.15868E-01   0.15868E-01   0.15931E-01   0.15931E-01
   0.16369E+03   0.17651E-01   0.17651E-01   0.17787E-01   0.17787E-01
   0.16710E+03   0.48448E-02   0.48448E-02   0.48078E-02   0.48078E-02
   0.17051E+03   0.47221E-02   0.47221E-02   0.46881E-02   0.46881E-02
   0.17392E+03   0.46783E-02   0.46783E-02   0.46467E-02   0.46467E-02
   0.17733E+03   0.46281E-02   0.46281E-02   0.46000E-02   0.46000E-02
   0.18074E+03   0.45373E-02   0.45373E-02   0.45133E-02   0.45133E-02
   0.18415E+03   0.44760E-02   0.44760E-02   0.44565E-02   0.44565E-02
   0.18756E+03   0.44771E-02   0.44771E-02   0.44612E-02   0.44612E-02
   0.19098E+03   0.33113E-02   0.33113E-02   0.33262E-02   0.33262E-02
   0.19439E+03   0.32864E-02   0.32864E-02   0.33079E-02   0.33079E-02
   0.19780E+03   0.34460E-02   0.34460E-02   0.34706E-02   0.34706E-02
   0.20121E+03   0.36414E-02   0.36414E-02   0.36699E-02   0.36699E-02
   0.20462E+03   0.38571E-02   0.38571E-02   0.38905E-02   0.38905E-02
   0.20803E+03   0.40780E-02   0.40780E-02   0.41176E-02   0.41176E-02
   0.21144E+03   0.43615E-02   0.43615E-02   0.44094E-02   0.44094E-02
   0.21485E+03   0.46431E-02   0.46431E-02   0.47015E-02   0.47015E-02
   0.21826E+03   0.49880E-02   0.49880E-02   0.50610E-02   0.50610E-02
   0.22167E+03   0.53973E-02   0.53973E-02   0.54913E-02   0.54913E-02
   0.22508E+03   0.58089E-02   0.58089E-02   0.59335E-02   0.59335E-02
   0.22849E+03   0.63338E-02   0.63338E-02   0.65141E-02   0.65141E-02
   0.23190E+03   0.76230E-02   0.76230E-02   0.79822E-02   0.79822E-02
   0.23531E+03   0.56578E-02   0.56578E-02   0.58178E-02   0.58178E-02
   0.23872E+03   0.54404E-02   0.54404E-02   0.55736E-02   0.55736E-02
   0.24213E+03   0.54899E-02   0.54899E-02   0.56300E-02   0.56300E-02
   0.24554E+03   0.58033E-02   0.58033E-02   0.59573E-02   0.59573E-02
   0.24895E+03   0.58837E-02   0.58837E-02   0.60476E-02   0.60476E-02
   0.25236E+03   0.57224E-02   0.57224E-02   0.58707E-02   0.58707E-02
   0.25577E+03   0.51870E-02   0.51870E-02   0.51006E-02   0.51006E-02
   0.25918E+03   0.68483E-02   0.68483E-02   0.62995E-02   0.62995E-02
   0.26259E+03   0.64860E-02   0.64860E-02   0.60770E-02   0.60770E-02
   0.26600E+03   0.35421E-01   0.35421E-01   0.35739E-01   0.35739E-01
   0.26941E+03   0.28820E-01   0.28820E-01   0.28830E-01   0.28830E-01
   0.27282E+03   0.36721E-01   0.36721E-01   0.37059E-01   0.37059E-01
   0.27623E+03   0.23356E-01   0.23356E-01   0.23485E-01   0.23485E-01
   0.27964E+03   0.18017E-01   0.18017E-01   0.18069E-01   0.18069E-01
   0.28305E+03   0.15624E-01   0.15624E-01   0.15653E-01   0.15653E-01
   0.28646E+03   0.14258E-01   0.14258E-01   0.14276E-01   0.14276E-01
   0.28987E+03   0.13382E-01   0.13382E-01   0.13394E-01   0.13394E-01
   0.29328E+03   0.12822E-01   0.12822E-01   0.12831E-01   0.12831E-01
   0.29669E+03   0.12594E-01   0.12594E-01   0.12599E-01   0.12599E-01
   0.30010E+03   0.12724E-01   0.12724E-01   0.12725E-01   0.12725E-01
   0.30351E+03   0.13035E-01   0.13035E-01   0.13028E-01   0.13028E-01
   0.30692E+03   0.19073E-01   0.19073E-01   0.19049E-01   0.19049E-01
   0.31033E+03   0.38400E-03   0.38400E-03   0.38406E-03   0.38406E-03
   0.31374E+03   0.00000E+00   0.00000E+00   0.00000E+00   0.00000E+00
   0.31716E+03   0.00000E+00   0.00000E+00   0.00000E+00   0.00000E+00
   0.32057E+03   0.00000E+00   0.00000E+00   0.00000E+00   0.00000E+00
   0.32398E+03   0.00000E+00   0.00000E+00   0.00000E+00   0.00000E+00
   0.32739E+03   0.00000E+00   0.00000E+00   0.00000E+00   0.00000E+00
   0.33080E+03   0.00000E+00   0.00000E+00   0.00000E+00   0.00000E+00
   0.33421E+03   0.00000E+00   0.00000E+00   0.00000E+00   0.00000E+00
   0.33762E+03   0.00000E+00   0.00000E+00   0.00000E+00   0.00000E+00
   0.34103E+03   0.00000E+00   0.00000E+00   0.00000E+00   0.00000E+00
