 1989

    1
0.0000000000e+00 0.0000000000e+00 0.0000000000e+00
0.0000000000e+00 0.0000000000e+00 0.0000000000e+00
     1      1      1
 1  1  1     0.0000000000e+00
 1  1  2    -1.5557529640e+01
 1  1  3     0.0000000000e+00
 1  2  1    -1.5557529640e+01
 1  2  2     0.0000000000e+00
 1  2  3     0.0000000000e+00
 1  3  1     0.0000000000e+00
 1  3  2     0.0000000000e+00
 1  3  3     0.0000000000e+00
 2  1  1    -1.5557529640e+01
 2  1  2     0.0000000000e+00
 2  1  3     0.0000000000e+00
 2  2  1     0.0000000000e+00
 2  2  2     1.5557529641e+01
 2  2  3     0.0000000000e+00
 2  3  1     0.0000000000e+00
 2  3  2     0.0000000000e+00
 2  3  3     0.0000000000e+00
 3  1  1     0.0000000000e+00
 3  1  2     0.0000000000e+00
 3  1  3     0.0000000000e+00
 3  2  1     0.0000000000e+00
 3  2  2     0.0000000000e+00
 3  2  3     0.0000000000e+00
 3  3  1     0.0000000000e+00
 3  3  2     0.0000000000e+00
 3  3  3     0.0000000000e+00

    2
0.0000000000e+00 0.0000000000e+00 0.0000000000e+00
0.0000000000e+00 0.0000000000e+00 0.0000000000e+00
     1      1      2
 1  1  1    -7.3103086911e+00
 1  1  2     4.3128134713e+00
 1  1  3    -8.7833199565e+00
 1  2  1     3.3021942931e+00
 1  2  2    -1.8532883091e+00
 1  2  3     4.2301564594e+00
 1  3  1    -8.7103918500e+00
 1  3  2     5.3104097335e+00
 1  3  3    -8.5645095372e+00
 2  1  1     3.3021942931e+00
 2  1  2    -1.8532883091e+00
 2  1  3     4.2301564594e+00
 2  2  1    -3.6037320730e+00
 2  2  2     1.9884109018e+00
 2  2  3    -3.8987560155e+00
 2  3  1     5.3104097335e+00
 2  3  2    -2.5784588719e+00
 2  3  3     4.9447218869e+00
 3  1  1    -8.7103918500e+00
 3  1  2     5.3104097335e+00
 3  1  3    -8.5645095372e+00
 3  2  1     5.3104097335e+00
 3  2  2    -2.5784588719e+00
 3  2  3     4.9447218869e+00
 3  3  1    -8.7742663752e+00
 3  3  2     5.0658250537e+00
 3  3  3    -8.9648130216e+00

    3
0.0000000000e+00 0.0000000000e+00 0.0000000000e+00
0.0000000000e+00 0.0000000000e+00 0.0000000000e+00
     1      1      3
 1  1  1    -7.3103086911e+00
 1  1  2     4.3128134713e+00
 1  1  3     8.7833199565e+00
 1  2  1     3.3021942931e+00
 1  2  2    -1.8532883091e+00
 1  2  3    -4.2301564594e+00
 1  3  1     8.7103918500e+00
 1  3  2    -5.3104097335e+00
 1  3  3    -8.5645095372e+00
 2  1  1     3.3021942931e+00
 2  1  2    -1.8532883091e+00
 2  1  3    -4.2301564594e+00
 2  2  1    -3.6037320730e+00
 2  2  2     1.9884109018e+00
 2  2  3     3.8987560155e+00
 2  3  1    -5.3104097335e+00
 2  3  2     2.5784588719e+00
 2  3  3     4.9447218869e+00
 3  1  1     8.7103918500e+00
 3  1  2    -5.3104097335e+00
 3  1  3    -8.5645095372e+00
 3  2  1    -5.3104097335e+00
 3  2  2     2.5784588719e+00
 3  2  3     4.9447218869e+00
 3  3  1    -8.7742663752e+00
 3  3  2     5.0658250537e+00
 3  3  3     8.9648130216e+00

    4
0.0000000000e+00 0.0000000000e+00 0.0000000000e+00
3.3224665840e+00 0.0000000000e+00 0.0000000000e+00
     1      1      1
 1  1  1    -4.5727071509e+00
 1  1  2     2.2820518828e+00
 1  1  3     0.0000000000e+00
 1  2  1     2.6266020962e-01
 1  2  2    -2.6126489454e-01
 1  2  3     0.0000000000e+00
 1  3  1     0.0000000000e+00
 1  3  2     0.0000000000e+00
 1  3  3    -6.4421684385e-01
 2  1  1     2.6266020962e-01
 2  1  2    -2.6126489454e-01
 2  1  3     0.0000000000e+00
 2  2  1     3.0997503774e-01
 2  2  2    -7.7309150871e-03
 2  2  3     0.0000000000e+00
 2  3  1     0.0000000000e+00
 2  3  2     0.0000000000e+00
 2  3  3    -1.0841713839e+00
 3  1  1     0.0000000000e+00
 3  1  2     0.0000000000e+00
 3  1  3    -6.4421684385e-01
 3  2  1     0.0000000000e+00
 3  2  2     0.0000000000e+00
 3  2  3    -1.0841713839e+00
 3  3  1    -1.4380120102e+00
 3  3  2    -7.2560351281e-01
 3  3  3     0.0000000000e+00

    5
0.0000000000e+00 0.0000000000e+00 0.0000000000e+00
3.3224665840e+00 0.0000000000e+00 0.0000000000e+00
     1      1      2
 1  1  1     2.8861630576e-02
 1  1  2    -1.0131829654e-01
 1  1  3    -1.2005456646e-01
 1  2  1     2.3470635929e-02
 1  2  2     2.6834183311e-02
 1  2  3     5.1997773137e-02
 1  3  1    -7.6132767190e-02
 1  3  2     7.0569523995e-02
 1  3  3    -3.3797966869e-02
 2  1  1     2.3470635929e-02
 2  1  2     2.6834183311e-02
 2  1  3     5.1997773137e-02
 2  2  1     6.3308361912e-02
 2  2  2     6.0988648930e-02
 2  2  3     1.5568808985e-01
 2  3  1    -6.7267576155e-02
 2  3  2    -5.3225309775e-02
 2  3  3     1.4189247542e-01
 3  1  1    -7.6132767190e-02
 3  1  2     7.0569523995e-02
 3  1  3    -3.3797966869e-02
 3  2  1    -6.7267576155e-02
 3  2  2    -5.3225309775e-02
 3  2  3     1.4189247542e-01
 3  3  1     1.6967471844e-01
 3  3  2     5.6735444010e-02
 3  3  3    -1.6095307563e-01

    6
0.0000000000e+00 0.0000000000e+00 0.0000000000e+00
3.3224665840e+00 0.0000000000e+00 0.0000000000e+00
     1      1      3
 1  1  1     2.8861630576e-02
 1  1  2    -1.0131829654e-01
 1  1  3     1.2005456646e-01
 1  2  1     2.3470635929e-02
 1  2  2     2.6834183311e-02
 1  2  3    -5.1997773137e-02
 1  3  1     7.6132767190e-02
 1  3  2    -7.0569523995e-02
 1  3  3    -3.3797966869e-02
 2  1  1     2.3470635929e-02
 2  1  2     2.6834183311e-02
 2  1  3    -5.1997773137e-02
 2  2  1     6.3308361912e-02
 2  2  2     6.0988648930e-02
 2  2  3    -1.5568808985e-01
 2  3  1     6.7267576155e-02
 2  3  2     5.3225309775e-02
 2  3  3     1.4189247542e-01
 3  1  1     7.6132767190e-02
 3  1  2    -7.0569523995e-02
 3  1  3    -3.3797966869e-02
 3  2  1     6.7267576155e-02
 3  2  2     5.3225309775e-02
 3  2  3     1.4189247542e-01
 3  3  1     1.6967471844e-01
 3  3  2     5.6735444010e-02
 3  3  3     1.6095307563e-01

    7
0.0000000000e+00 0.0000000000e+00 0.0000000000e+00
-6.6449331680e+00 0.0000000000e+00 0.0000000000e+00
     1      1      2
 1  1  1    -2.8861630576e-02
 1  1  2    -1.0131829654e-01
 1  1  3    -1.2005456646e-01
 1  2  1     2.3470635929e-02
 1  2  2    -2.6834183311e-02
 1  2  3    -5.1997773137e-02
 1  3  1    -7.6132767190e-02
 1  3  2    -7.0569523995e-02
 1  3  3     3.3797966869e-02
 2  1  1     2.3470635929e-02
 2  1  2    -2.6834183311e-02
 2  1  3    -5.1997773137e-02
 2  2  1    -6.3308361912e-02
 2  2  2     6.0988648930e-02
 2  2  3     1.5568808985e-01
 2  3  1     6.7267576155e-02
 2  3  2    -5.3225309775e-02
 2  3  3     1.4189247542e-01
 3  1  1    -7.6132767190e-02
 3  1  2    -7.0569523995e-02
 3  1  3     3.3797966869e-02
 3  2  1     6.7267576155e-02
 3  2  2    -5.3225309775e-02
 3  2  3     1.4189247542e-01
 3  3  1    -1.6967471844e-01
 3  3  2     5.6735444010e-02
 3  3  3    -1.6095307563e-01

    8
0.0000000000e+00 0.0000000000e+00 0.0000000000e+00
-6.6449331680e+00 0.0000000000e+00 0.0000000000e+00
     1      1      3
 1  1  1    -2.8861630576e-02
 1  1  2    -1.0131829654e-01
 1  1  3     1.2005456646e-01
 1  2  1     2.3470635929e-02
 1  2  2    -2.6834183311e-02
 1  2  3     5.1997773137e-02
 1  3  1     7.6132767190e-02
 1  3  2     7.0569523995e-02
 1  3  3     3.3797966869e-02
 2  1  1     2.3470635929e-02
 2  1  2    -2.6834183311e-02
 2  1  3     5.1997773137e-02
 2  2  1    -6.3308361912e-02
 2  2  2     6.0988648930e-02
 2  2  3    -1.5568808985e-01
 2  3  1    -6.7267576155e-02
 2  3  2     5.3225309775e-02
 2  3  3     1.4189247542e-01
 3  1  1     7.6132767190e-02
 3  1  2     7.0569523995e-02
 3  1  3     3.3797966869e-02
 3  2  1    -6.7267576155e-02
 3  2  2     5.3225309775e-02
 3  2  3     1.4189247542e-01
 3  3  1    -1.6967471844e-01
 3  3  2     5.6735444010e-02
 3  3  3     1.6095307563e-01

    9
0.0000000000e+00 0.0000000000e+00 0.0000000000e+00
-3.3224665840e+00 0.0000000000e+00 0.0000000000e+00
     1      1      1
 1  1  1     4.5727071509e+00
 1  1  2     2.2820518828e+00
 1  1  3     0.0000000000e+00
 1  2  1     2.6266020962e-01
 1  2  2     2.6126489454e-01
 1  2  3     0.0000000000e+00
 1  3  1     0.0000000000e+00
 1  3  2     0.0000000000e+00
 1  3  3     6.4421684385e-01
 2  1  1     2.6266020962e-01
 2  1  2     2.6126489454e-01
 2  1  3     0.0000000000e+00
 2  2  1    -3.0997503774e-01
 2  2  2    -7.7309150871e-03
 2  2  3     0.0000000000e+00
 2  3  1     0.0000000000e+00
 2  3  2     0.0000000000e+00
 2  3  3    -1.0841713839e+00
 3  1  1     0.0000000000e+00
 3  1  2     0.0000000000e+00
 3  1  3     6.4421684385e-01
 3  2  1     0.0000000000e+00
 3  2  2     0.0000000000e+00
 3  2  3    -1.0841713839e+00
 3  3  1     1.4380120102e+00
 3  3  2    -7.2560351281e-01
 3  3  3     0.0000000000e+00

   10
0.0000000000e+00 0.0000000000e+00 0.0000000000e+00
-3.3224665840e+00 0.0000000000e+00 0.0000000000e+00
     1      1      2
 1  1  1     7.3103086911e+00
 1  1  2     4.3128134713e+00
 1  1  3    -8.7833199565e+00
 1  2  1     3.3021942931e+00
 1  2  2     1.8532883091e+00
 1  2  3    -4.2301564594e+00
 1  3  1    -8.7103918500e+00
 1  3  2    -5.3104097335e+00
 1  3  3     8.5645095372e+00
 2  1  1     3.3021942931e+00
 2  1  2     1.8532883091e+00
 2  1  3    -4.2301564594e+00
 2  2  1     3.6037320730e+00
 2  2  2     1.9884109018e+00
 2  2  3    -3.8987560155e+00
 2  3  1    -5.3104097335e+00
 2  3  2    -2.5784588719e+00
 2  3  3     4.9447218869e+00
 3  1  1    -8.7103918500e+00
 3  1  2    -5.3104097335e+00
 3  1  3     8.5645095372e+00
 3  2  1    -5.3104097335e+00
 3  2  2    -2.5784588719e+00
 3  2  3     4.9447218869e+00
 3  3  1     8.7742663752e+00
 3  3  2     5.0658250537e+00
 3  3  3    -8.9648130216e+00

   11
0.0000000000e+00 0.0000000000e+00 0.0000000000e+00
-3.3224665840e+00 0.0000000000e+00 0.0000000000e+00
     1      1      3
 1  1  1     7.3103086911e+00
 1  1  2     4.3128134713e+00
 1  1  3     8.7833199565e+00
 1  2  1     3.3021942931e+00
 1  2  2     1.8532883091e+00
 1  2  3     4.2301564594e+00
 1  3  1     8.7103918500e+00
 1  3  2     5.3104097335e+00
 1  3  3     8.5645095372e+00
 2  1  1     3.3021942931e+00
 2  1  2     1.8532883091e+00
 2  1  3     4.2301564594e+00
 2  2  1     3.6037320730e+00
 2  2  2     1.9884109018e+00
 2  2  3     3.8987560155e+00
 2  3  1     5.3104097335e+00
 2  3  2     2.5784588719e+00
 2  3  3     4.9447218869e+00
 3  1  1     8.7103918500e+00
 3  1  2     5.3104097335e+00
 3  1  3     8.5645095372e+00
 3  2  1     5.3104097335e+00
 3  2  2     2.5784588719e+00
 3  2  3     4.9447218869e+00
 3  3  1     8.7742663752e+00
 3  3  2     5.0658250537e+00
 3  3  3     8.9648130216e+00

   12
0.0000000000e+00 0.0000000000e+00 0.0000000000e+00
-1.6612332920e+00 2.8773404650e+00 0.0000000000e+00
     1      1      1
 1  1  1     4.8503869399e-02
 1  1  2    -7.6091666336e-01
 1  1  3     0.0000000000e+00
 1  2  1    -2.4592911978e-01
 1  2  2     2.1477069081e+00
 1  2  3     0.0000000000e+00
 1  3  1     0.0000000000e+00
 1  3  2     0.0000000000e+00
 1  3  3     1.2610283824e+00
 2  1  1    -2.4592911978e-01
 2  1  2     2.1477069081e+00
 2  1  3     0.0000000000e+00
 2  2  1     1.1324245280e-01
 2  2  2    -4.0678781201e+00
 2  2  3     0.0000000000e+00
 2  3  1     0.0000000000e+00
 2  3  2     0.0000000000e+00
 2  3  3    -1.5822460369e-02
 3  1  1     0.0000000000e+00
 3  1  2     0.0000000000e+00
 3  1  3     1.2610283824e+00
 3  2  1     0.0000000000e+00
 3  2  2     0.0000000000e+00
 3  2  3    -1.5822460369e-02
 3  3  1     1.3473970802e+00
 3  3  2    -8.8255317536e-01
 3  3  3     0.0000000000e+00

   13
0.0000000000e+00 0.0000000000e+00 0.0000000000e+00
-1.6612332920e+00 2.8773404650e+00 0.0000000000e+00
     1      1      2
 1  1  1     0.0000000000e+00
 1  1  2    -1.9290335759e+00
 1  1  3    -1.4564740448e+00
 1  2  1     9.2204780643e-02
 1  2  2     0.0000000000e+00
 1  2  3     0.0000000000e+00
 1  3  1     4.8750761726e-01
 1  3  2     0.0000000000e+00
 1  3  3     0.0000000000e+00
 2  1  1     9.2204780643e-02
 2  1  2     0.0000000000e+00
 2  1  3     0.0000000000e+00
 2  2  1     0.0000000000e+00
 2  2  2    -1.0673415171e+01
 2  2  3    -1.1225601927e+01
 2  3  1     0.0000000000e+00
 2  3  2    -1.1776358339e+01
 2  3  3    -9.8894437737e+00
 3  1  1     4.8750761726e-01
 3  1  2     0.0000000000e+00
 3  1  3     0.0000000000e+00
 3  2  1     0.0000000000e+00
 3  2  2    -1.1776358339e+01
 3  2  3    -9.8894437737e+00
 3  3  1     0.0000000000e+00
 3  3  2    -1.0131650107e+01
 3  3  3    -8.9648130216e+00

   14
0.0000000000e+00 0.0000000000e+00 0.0000000000e+00
-1.6612332920e+00 2.8773404650e+00 0.0000000000e+00
     1      1      3
 1  1  1     0.0000000000e+00
 1  1  2    -1.9290335759e+00
 1  1  3     1.4564740448e+00
 1  2  1     9.2204780643e-02
 1  2  2     0.0000000000e+00
 1  2  3     0.0000000000e+00
 1  3  1    -4.8750761726e-01
 1  3  2     0.0000000000e+00
 1  3  3     0.0000000000e+00
 2  1  1     9.2204780643e-02
 2  1  2     0.0000000000e+00
 2  1  3     0.0000000000e+00
 2  2  1     0.0000000000e+00
 2  2  2    -1.0673415171e+01
 2  2  3     1.1225601927e+01
 2  3  1     0.0000000000e+00
 2  3  2     1.1776358339e+01
 2  3  3    -9.8894437737e+00
 3  1  1    -4.8750761726e-01
 3  1  2     0.0000000000e+00
 3  1  3     0.0000000000e+00
 3  2  1     0.0000000000e+00
 3  2  2     1.1776358339e+01
 3  2  3    -9.8894437737e+00
 3  3  1     0.0000000000e+00
 3  3  2    -1.0131650107e+01
 3  3  3     8.9648130216e+00

   15
0.0000000000e+00 0.0000000000e+00 0.0000000000e+00
1.6612332920e+00 2.8773404650e+00 0.0000000000e+00
     1      1      1
 1  1  1    -4.8503869399e-02
 1  1  2    -7.6091666336e-01
 1  1  3     0.0000000000e+00
 1  2  1    -2.4592911978e-01
 1  2  2    -2.1477069081e+00
 1  2  3     0.0000000000e+00
 1  3  1     0.0000000000e+00
 1  3  2     0.0000000000e+00
 1  3  3    -1.2610283824e+00
 2  1  1    -2.4592911978e-01
 2  1  2    -2.1477069081e+00
 2  1  3     0.0000000000e+00
 2  2  1    -1.1324245280e-01
 2  2  2    -4.0678781201e+00
 2  2  3     0.0000000000e+00
 2  3  1     0.0000000000e+00
 2  3  2     0.0000000000e+00
 2  3  3    -1.5822460369e-02
 3  1  1     0.0000000000e+00
 3  1  2     0.0000000000e+00
 3  1  3    -1.2610283824e+00
 3  2  1     0.0000000000e+00
 3  2  2     0.0000000000e+00
 3  2  3    -1.5822460369e-02
 3  3  1    -1.3473970802e+00
 3  3  2    -8.8255317536e-01
 3  3  3     0.0000000000e+00

   16
0.0000000000e+00 0.0000000000e+00 0.0000000000e+00
1.6612332920e+00 2.8773404650e+00 0.0000000000e+00
     1      1      2
 1  1  1     2.5850781655e-01
 1  1  2    -2.0851227902e-01
 1  1  3    -1.3197625733e-01
 1  2  1    -1.4777430790e-01
 1  2  2     1.2123635616e-01
 1  2  3    -4.7009270905e-02
 1  3  1    -2.8461527778e-01
 1  3  2    -7.3784921832e-02
 1  3  3     2.5862106369e-02
 2  1  1    -1.4777430790e-01
 2  1  2     1.2123635616e-01
 2  1  3    -4.7009270905e-02
 2  2  1     1.6035104227e-02
 2  2  2     3.6701970825e-01
 2  2  3    -7.7694626911e-02
 2  3  1    -7.3784921832e-02
 2  3  2    -1.9941578882e-01
 2  3  3     1.4931494074e-02
 3  1  1    -2.8461527778e-01
 3  1  2    -7.3784921832e-02
 3  1  3     2.5862106369e-02
 3  2  1    -7.3784921832e-02
 3  2  2    -1.9941578882e-01
 3  2  3     1.4931494074e-02
 3  3  1    -1.0831737737e-01
 3  3  2    -6.2537066982e-02
 3  3  3    -4.4942810374e-02

   17
0.0000000000e+00 0.0000000000e+00 0.0000000000e+00
1.6612332920e+00 2.8773404650e+00 0.0000000000e+00
     1      1      3
 1  1  1     2.5850781655e-01
 1  1  2    -2.0851227902e-01
 1  1  3     1.3197625733e-01
 1  2  1    -1.4777430790e-01
 1  2  2     1.2123635616e-01
 1  2  3     4.7009270905e-02
 1  3  1     2.8461527778e-01
 1  3  2     7.3784921832e-02
 1  3  3     2.5862106369e-02
 2  1  1    -1.4777430790e-01
 2  1  2     1.2123635616e-01
 2  1  3     4.7009270905e-02
 2  2  1     1.6035104227e-02
 2  2  2     3.6701970825e-01
 2  2  3     7.7694626911e-02
 2  3  1     7.3784921832e-02
 2  3  2     1.9941578882e-01
 2  3  3     1.4931494074e-02
 3  1  1     2.8461527778e-01
 3  1  2     7.3784921832e-02
 3  1  3     2.5862106369e-02
 3  2  1     7.3784921832e-02
 3  2  2     1.9941578882e-01
 3  2  3     1.4931494074e-02
 3  3  1    -1.0831737737e-01
 3  3  2    -6.2537066982e-02
 3  3  3     4.4942810374e-02

   18
0.0000000000e+00 0.0000000000e+00 0.0000000000e+00
4.9836998760e+00 2.8773404650e+00 0.0000000000e+00
     1      1      1
 1  1  1     1.1529835263e-01
 1  1  2     1.2684304209e-01
 1  1  3     0.0000000000e+00
 1  2  1    -4.5895604145e-03
 1  2  2    -3.7449864224e-02
 1  2  3     0.0000000000e+00
 1  3  1     0.0000000000e+00
 1  3  2     0.0000000000e+00
 1  3  3    -5.4678137736e-02
 2  1  1    -4.5895604145e-03
 2  1  2    -3.7449864224e-02
 2  1  3     0.0000000000e+00
 2  2  1     1.9019808108e-01
 2  2  2     4.9535406153e-02
 2  2  3     0.0000000000e+00
 2  3  1     0.0000000000e+00
 2  3  2     0.0000000000e+00
 2  3  3    -3.1568437541e-02
 3  1  1     0.0000000000e+00
 3  1  2     0.0000000000e+00
 3  1  3    -5.4678137736e-02
 3  2  1     0.0000000000e+00
 3  2  2     0.0000000000e+00
 3  2  3    -3.1568437541e-02
 3  3  1    -9.1026047840e-03
 3  3  2    -5.2553913224e-03
 3  3  3     0.0000000000e+00

   19
0.0000000000e+00 0.0000000000e+00 0.0000000000e+00
-4.9836998760e+00 2.8773404650e+00 0.0000000000e+00
     1      1      1
 1  1  1    -1.1529835263e-01
 1  1  2     1.2684304209e-01
 1  1  3     0.0000000000e+00
 1  2  1    -4.5895604145e-03
 1  2  2     3.7449864224e-02
 1  2  3     0.0000000000e+00
 1  3  1     0.0000000000e+00
 1  3  2     0.0000000000e+00
 1  3  3     5.4678137736e-02
 2  1  1    -4.5895604145e-03
 2  1  2     3.7449864224e-02
 2  1  3     0.0000000000e+00
 2  2  1    -1.9019808108e-01
 2  2  2     4.9535406153e-02
 2  2  3     0.0000000000e+00
 2  3  1     0.0000000000e+00
 2  3  2     0.0000000000e+00
 2  3  3    -3.1568437541e-02
 3  1  1     0.0000000000e+00
 3  1  2     0.0000000000e+00
 3  1  3     5.4678137736e-02
 3  2  1     0.0000000000e+00
 3  2  2     0.0000000000e+00
 3  2  3    -3.1568437541e-02
 3  3  1     9.1026047840e-03
 3  3  2    -5.2553913224e-03
 3  3  3     0.0000000000e+00

   20
0.0000000000e+00 0.0000000000e+00 0.0000000000e+00
-4.9836998760e+00 2.8773404650e+00 0.0000000000e+00
     1      1      2
 1  1  1    -2.5850781655e-01
 1  1  2    -2.0851227902e-01
 1  1  3    -1.3197625733e-01
 1  2  1    -1.4777430790e-01
 1  2  2    -1.2123635616e-01
 1  2  3     4.7009270905e-02
 1  3  1    -2.8461527778e-01
 1  3  2     7.3784921832e-02
 1  3  3    -2.5862106369e-02
 2  1  1    -1.4777430790e-01
 2  1  2    -1.2123635616e-01
 2  1  3     4.7009270905e-02
 2  2  1    -1.6035104227e-02
 2  2  2     3.6701970825e-01
 2  2  3    -7.7694626911e-02
 2  3  1     7.3784921832e-02
 2  3  2    -1.9941578882e-01
 2  3  3     1.4931494074e-02
 3  1  1    -2.8461527778e-01
 3  1  2     7.3784921832e-02
 3  1  3    -2.5862106369e-02
 3  2  1     7.3784921832e-02
 3  2  2    -1.9941578882e-01
 3  2  3     1.4931494074e-02
 3  3  1     1.0831737737e-01
 3  3  2    -6.2537066982e-02
 3  3  3    -4.4942810374e-02

   21
0.0000000000e+00 0.0000000000e+00 0.0000000000e+00
-4.9836998760e+00 2.8773404650e+00 0.0000000000e+00
     1      1      3
 1  1  1    -2.5850781655e-01
 1  1  2    -2.0851227902e-01
 1  1  3     1.3197625733e-01
 1  2  1    -1.4777430790e-01
 1  2  2    -1.2123635616e-01
 1  2  3    -4.7009270905e-02
 1  3  1     2.8461527778e-01
 1  3  2    -7.3784921832e-02
 1  3  3    -2.5862106369e-02
 2  1  1    -1.4777430790e-01
 2  1  2    -1.2123635616e-01
 2  1  3    -4.7009270905e-02
 2  2  1    -1.6035104227e-02
 2  2  2     3.6701970825e-01
 2  2  3     7.7694626911e-02
 2  3  1    -7.3784921832e-02
 2  3  2     1.9941578882e-01
 2  3  3     1.4931494074e-02
 3  1  1     2.8461527778e-01
 3  1  2    -7.3784921832e-02
 3  1  3    -2.5862106369e-02
 3  2  1    -7.3784921832e-02
 3  2  2     1.9941578882e-01
 3  2  3     1.4931494074e-02
 3  3  1     1.0831737737e-01
 3  3  2    -6.2537066982e-02
 3  3  3     4.4942810374e-02

   22
0.0000000000e+00 0.0000000000e+00 0.0000000000e+00
-3.3224665840e+00 5.7546809300e+00 0.0000000000e+00
     1      1      2
 1  1  1    -7.5314295318e-02
 1  1  2     4.3146192031e-02
 1  1  3     1.3178381825e-01
 1  2  1    -5.0835839454e-02
 1  2  2    -2.5677497897e-02
 1  2  3     9.3401186069e-02
 1  3  1    -5.7522388772e-02
 1  3  2     7.8012283145e-02
 1  3  3    -1.0598350489e-01
 2  1  1    -5.0835839454e-02
 2  1  2    -2.5677497897e-02
 2  1  3     9.3401186069e-02
 2  2  1     6.4155798432e-02
 2  2  2     5.6840186736e-02
 2  2  3    -9.6150294864e-02
 2  3  1    -5.9824817006e-02
 2  3  2    -7.1835688193e-02
 2  3  3    -1.0021613562e-01
 3  1  1    -5.7522388772e-02
 3  1  2     7.8012283145e-02
 3  1  3    -1.0598350489e-01
 3  2  1    -5.9824817006e-02
 3  2  2    -7.1835688193e-02
 3  2  3    -1.0021613562e-01
 3  3  1    -1.3397169503e-01
 3  3  2     1.1857489454e-01
 3  3  3    -1.6095307563e-01

   23
0.0000000000e+00 0.0000000000e+00 0.0000000000e+00
-3.3224665840e+00 5.7546809300e+00 0.0000000000e+00
     1      1      3
 1  1  1    -7.5314295318e-02
 1  1  2     4.3146192031e-02
 1  1  3    -1.3178381825e-01
 1  2  1    -5.0835839454e-02
 1  2  2    -2.5677497897e-02
 1  2  3    -9.3401186069e-02
 1  3  1     5.7522388772e-02
 1  3  2    -7.8012283145e-02
 1  3  3    -1.0598350489e-01
 2  1  1    -5.0835839454e-02
 2  1  2    -2.5677497897e-02
 2  1  3    -9.3401186069e-02
 2  2  1     6.4155798432e-02
 2  2  2     5.6840186736e-02
 2  2  3     9.6150294864e-02
 2  3  1     5.9824817006e-02
 2  3  2     7.1835688193e-02
 2  3  3    -1.0021613562e-01
 3  1  1     5.7522388772e-02
 3  1  2    -7.8012283145e-02
 3  1  3    -1.0598350489e-01
 3  2  1     5.9824817006e-02
 3  2  2     7.1835688193e-02
 3  2  3    -1.0021613562e-01
 3  3  1    -1.3397169503e-01
 3  3  2     1.1857489454e-01
 3  3  3     1.6095307563e-01

   24
0.0000000000e+00 0.0000000000e+00 0.0000000000e+00
-5.5511151231e-16 5.7546809300e+00 0.0000000000e+00
     1      1      1
 1  1  1     0.0000000000e+00
 1  1  2    -1.0257889414e-01
 1  1  3     0.0000000000e+00
 1  2  1    -1.6934140004e-01
 1  2  2     0.0000000000e+00
 1  2  3     0.0000000000e+00
 1  3  1     0.0000000000e+00
 1  3  2     0.0000000000e+00
 1  3  3     0.0000000000e+00
 2  1  1    -1.6934140004e-01
 2  1  2     0.0000000000e+00
 2  1  3     0.0000000000e+00
 2  2  1     0.0000000000e+00
 2  2  2     1.6774107618e-01
 2  2  3     0.0000000000e+00
 2  3  1     0.0000000000e+00
 2  3  2     0.0000000000e+00
 2  3  3     1.8358271801e-02
 3  1  1     0.0000000000e+00
 3  1  2     0.0000000000e+00
 3  1  3     0.0000000000e+00
 3  2  1     0.0000000000e+00
 3  2  2     0.0000000000e+00
 3  2  3     1.8358271801e-02
 3  3  1     0.0000000000e+00
 3  3  2    -4.1953102610e-02
 3  3  3     0.0000000000e+00

   25
0.0000000000e+00 0.0000000000e+00 0.0000000000e+00
0.0000000000e+00 5.7546809300e+00 0.0000000000e+00
     1      1      2
 1  1  1     7.5314295318e-02
 1  1  2     4.3146192031e-02
 1  1  3     1.3178381825e-01
 1  2  1    -5.0835839454e-02
 1  2  2     2.5677497897e-02
 1  2  3    -9.3401186069e-02
 1  3  1    -5.7522388772e-02
 1  3  2    -7.8012283145e-02
 1  3  3     1.0598350489e-01
 2  1  1    -5.0835839454e-02
 2  1  2     2.5677497897e-02
 2  1  3    -9.3401186069e-02
 2  2  1    -6.4155798432e-02
 2  2  2     5.6840186736e-02
 2  2  3    -9.6150294864e-02
 2  3  1     5.9824817006e-02
 2  3  2    -7.1835688193e-02
 2  3  3    -1.0021613562e-01
 3  1  1    -5.7522388772e-02
 3  1  2    -7.8012283145e-02
 3  1  3     1.0598350489e-01
 3  2  1     5.9824817006e-02
 3  2  2    -7.1835688193e-02
 3  2  3    -1.0021613562e-01
 3  3  1     1.3397169503e-01
 3  3  2     1.1857489454e-01
 3  3  3    -1.6095307563e-01

   26
0.0000000000e+00 0.0000000000e+00 0.0000000000e+00
0.0000000000e+00 5.7546809300e+00 0.0000000000e+00
     1      1      3
 1  1  1     7.5314295318e-02
 1  1  2     4.3146192031e-02
 1  1  3    -1.3178381825e-01
 1  2  1    -5.0835839454e-02
 1  2  2     2.5677497897e-02
 1  2  3     9.3401186069e-02
 1  3  1     5.7522388772e-02
 1  3  2     7.8012283145e-02
 1  3  3     1.0598350489e-01
 2  1  1    -5.0835839454e-02
 2  1  2     2.5677497897e-02
 2  1  3     9.3401186069e-02
 2  2  1    -6.4155798432e-02
 2  2  2     5.6840186736e-02
 2  2  3     9.6150294864e-02
 2  3  1    -5.9824817006e-02
 2  3  2     7.1835688193e-02
 2  3  3    -1.0021613562e-01
 3  1  1     5.7522388772e-02
 3  1  2     7.8012283145e-02
 3  1  3     1.0598350489e-01
 3  2  1    -5.9824817006e-02
 3  2  2     7.1835688193e-02
 3  2  3    -1.0021613562e-01
 3  3  1     1.3397169503e-01
 3  3  2     1.1857489454e-01
 3  3  3     1.6095307563e-01

   27
0.0000000000e+00 0.0000000000e+00 0.0000000000e+00
0.0000000000e+00 -5.7546809300e+00 0.0000000000e+00
     1      1      1
 1  1  1     0.0000000000e+00
 1  1  2    -2.0258969784e-01
 1  1  3     0.0000000000e+00
 1  2  1     6.0275507157e-02
 1  2  2     0.0000000000e+00
 1  2  3     0.0000000000e+00
 1  3  1     0.0000000000e+00
 1  3  2     0.0000000000e+00
 1  3  3     0.0000000000e+00
 2  1  1     6.0275507157e-02
 2  1  2     0.0000000000e+00
 2  1  3     0.0000000000e+00
 2  2  1     0.0000000000e+00
 2  2  2    -1.5016719864e-01
 2  2  3     0.0000000000e+00
 2  3  1     0.0000000000e+00
 2  3  2     0.0000000000e+00
 2  3  3     6.3136875082e-02
 3  1  1     0.0000000000e+00
 3  1  2     0.0000000000e+00
 3  1  3     0.0000000000e+00
 3  2  1     0.0000000000e+00
 3  2  2     0.0000000000e+00
 3  2  3     6.3136875082e-02
 3  3  1     0.0000000000e+00
 3  3  2     1.0510782645e-02
 3  3  3     0.0000000000e+00

   28
0.0000000000e+00 0.0000000000e+00 0.0000000000e+00
1.6612332920e+00 -2.8773404650e+00 0.0000000000e+00
     1      1      1
 1  1  1    -1.2540889818e+00
 1  1  2     5.9019219341e-01
 1  1  3     0.0000000000e+00
 1  2  1     2.0945963230e+00
 1  2  2    -1.3836722862e+00
 1  2  3     0.0000000000e+00
 1  3  1     0.0000000000e+00
 1  3  2     0.0000000000e+00
 1  3  3     6.1681153859e-01
 2  1  1     2.0945963230e+00
 2  1  2    -1.3836722862e+00
 2  1  3     0.0000000000e+00
 2  2  1    -2.8468968092e+00
 2  2  2     1.9642816223e+00
 2  2  3     0.0000000000e+00
 2  3  1     0.0000000000e+00
 2  3  2     0.0000000000e+00
 2  3  3     1.0999938443e+00
 3  1  1     0.0000000000e+00
 3  1  2     0.0000000000e+00
 3  1  3     6.1681153859e-01
 3  2  1     0.0000000000e+00
 3  2  2     0.0000000000e+00
 3  2  3     1.0999938443e+00
 3  3  1    -9.0614929923e-02
 3  3  2     1.6081566882e+00
 3  3  3     0.0000000000e+00

   29
0.0000000000e+00 0.0000000000e+00 0.0000000000e+00
1.6612332920e+00 -2.8773404650e+00 0.0000000000e+00
     1      1      2
 1  1  1     1.9633658724e-02
 1  1  2    -2.8352150700e-02
 1  1  3     4.1721033293e-02
 1  2  1    -5.9159051684e-02
 1  2  2    -6.4929638054e-02
 1  2  3     1.4539895921e-01
 1  3  1    -6.0381959484e-02
 1  3  2    -5.8173843086e-02
 1  3  3    -1.3978147176e-01
 2  1  1    -5.9159051684e-02
 2  1  2    -6.4929638054e-02
 2  1  3     1.4539895921e-01
 2  2  1     6.1377836876e-02
 2  2  2    -3.1304580456e-02
 2  2  3    -6.0875099091e-03
 2  3  1     7.9663257064e-02
 2  3  2    -6.8976117482e-02
 2  3  3    -4.1676339806e-02
 3  1  1    -6.0381959484e-02
 3  1  2    -5.8173843086e-02
 3  1  3    -1.3978147176e-01
 3  2  1     7.9663257064e-02
 3  2  2    -6.8976117482e-02
 3  2  3    -4.1676339806e-02
 3  3  1     3.5703023412e-02
 3  3  2    -1.7531033855e-01
 3  3  3    -1.6095307563e-01

   30
0.0000000000e+00 0.0000000000e+00 0.0000000000e+00
1.6612332920e+00 -2.8773404650e+00 0.0000000000e+00
     1      1      3
 1  1  1     1.9633658724e-02
 1  1  2    -2.8352150700e-02
 1  1  3    -4.1721033293e-02
 1  2  1    -5.9159051684e-02
 1  2  2    -6.4929638054e-02
 1  2  3    -1.4539895921e-01
 1  3  1     6.0381959484e-02
 1  3  2     5.8173843086e-02
 1  3  3    -1.3978147176e-01
 2  1  1    -5.9159051684e-02
 2  1  2    -6.4929638054e-02
 2  1  3    -1.4539895921e-01
 2  2  1     6.1377836876e-02
 2  2  2    -3.1304580456e-02
 2  2  3     6.0875099091e-03
 2  3  1    -7.9663257064e-02
 2  3  2     6.8976117482e-02
 2  3  3    -4.1676339806e-02
 3  1  1     6.0381959484e-02
 3  1  2     5.8173843086e-02
 3  1  3    -1.3978147176e-01
 3  2  1    -7.9663257064e-02
 3  2  2     6.8976117482e-02
 3  2  3    -4.1676339806e-02
 3  3  1     3.5703023412e-02
 3  3  2    -1.7531033855e-01
 3  3  3     1.6095307563e-01

   31
0.0000000000e+00 0.0000000000e+00 0.0000000000e+00
4.9836998760e+00 -2.8773404650e+00 0.0000000000e+00
     1      1      1
 1  1  1     1.3415065692e-02
 1  1  2    -1.7708659183e-01
 1  1  3     0.0000000000e+00
 1  2  1    -1.4370533888e-01
 1  2  2    -1.4800986812e-02
 1  2  3     0.0000000000e+00
 1  3  1     0.0000000000e+00
 1  3  2     0.0000000000e+00
 1  3  3     1.5898729749e-02
 2  1  1    -1.4370533888e-01
 2  1  2    -1.4800986812e-02
 2  1  3     0.0000000000e+00
 2  2  1     4.3017039317e-02
 2  2  2     1.4450550081e-01
 2  2  3     0.0000000000e+00
 2  3  1     0.0000000000e+00
 2  3  2     0.0000000000e+00
 2  3  3    -9.1791359007e-03
 3  1  1     0.0000000000e+00
 3  1  2     0.0000000000e+00
 3  1  3     1.5898729749e-02
 3  2  1     0.0000000000e+00
 3  2  2     0.0000000000e+00
 3  2  3    -9.1791359007e-03
 3  3  1    -3.6332452627e-02
 3  3  2     2.0976551305e-02
 3  3  3     0.0000000000e+00

   32
0.0000000000e+00 0.0000000000e+00 0.0000000000e+00
-4.9836998760e+00 -2.8773404650e+00 0.0000000000e+00
     1      1      1
 1  1  1    -1.3415065692e-02
 1  1  2    -1.7708659183e-01
 1  1  3     0.0000000000e+00
 1  2  1    -1.4370533888e-01
 1  2  2     1.4800986812e-02
 1  2  3     0.0000000000e+00
 1  3  1     0.0000000000e+00
 1  3  2     0.0000000000e+00
 1  3  3    -1.5898729749e-02
 2  1  1    -1.4370533888e-01
 2  1  2     1.4800986812e-02
 2  1  3     0.0000000000e+00
 2  2  1    -4.3017039317e-02
 2  2  2     1.4450550081e-01
 2  2  3     0.0000000000e+00
 2  3  1     0.0000000000e+00
 2  3  2     0.0000000000e+00
 2  3  3    -9.1791359007e-03
 3  1  1     0.0000000000e+00
 3  1  2     0.0000000000e+00
 3  1  3    -1.5898729749e-02
 3  2  1     0.0000000000e+00
 3  2  2     0.0000000000e+00