 1989

    1
0.0000000000e+00 0.0000000000e+00 0.0000000000e+00
0.0000000000e+00 0.0000000000e+00 0.0000000000e+00
     1      1      1
 1  1  1     0.0000000000e+00
 1  1  2     0.0000000000e+00
 1  1  3     0.0000000000e+00
 1  2  1     0.0000000000e+00
 1  2  2     0.0000000000e+00
 1  2  3     0.0000000000e+00
 1  3  1     0.0000000000e+00
 1  3  2     0.0000000000e+00
 1  3  3     0.0000000000e+00
 2  1  1     0.0000000000e+00
 2  1  2     0.0000000000e+00
 2  1  3     0.0000000000e+00
 2  2  1     0.0000000000e+00
 2  2  2     0.0000000000e+00
 2  2  3     0.0000000000e+00
 2  3  1     0.0000000000e+00
 2  3  2     0.0000000000e+00
 2  3  3     0.0000000000e+00
 3  1  1     0.0000000000e+00
 3  1  2     0.0000000000e+00
 3  1  3     0.0000000000e+00
 3  2  1     0.0000000000e+00
 3  2  2     0.0000000000e+00
 3  2  3     0.0000000000e+00
 3  3  1     0.0000000000e+00
 3  3  2     0.0000000000e+00
 3  3  3     0.0000000000e+00

    2
0.0000000000e+00 0.0000000000e+00 0.0000000000e+00
0.0000000000e+00 0.0000000000e+00 0.0000000000e+00
     1      1      2
 1  1  1    -2.0779120300e+00
 1  1  2     2.1107364633e-01
 1  1  3    -9.7592196611e+00
 1  2  1    -5.3492235870e-01
 1  2  2    -2.6193634979e-01
 1  2  3     4.5594734137e+00
 1  3  1    -9.7292808429e+00
 1  3  2     5.8820488900e+00
 1  3  3    -9.5091144766e+00
 2  1  1    -5.3492235870e-01
 2  1  2    -2.6193634979e-01
 2  1  3     4.5594734137e+00
 2  2  1    -1.5540393338e+00
 2  2  2     1.8858344535e+00
 2  2  3    -4.4943932629e+00
 2  3  1     5.8820488900e+00
 2  3  2    -2.9372758284e+00
 2  3  3     5.4900898053e+00
 3  1  1    -9.7292808429e+00
 3  1  2     5.8820488900e+00
 3  1  3    -9.5091144766e+00
 3  2  1     5.8820488900e+00
 3  2  2    -2.9372758284e+00
 3  2  3     5.4900898053e+00
 3  3  1    -9.8620932401e+00
 3  3  2     5.6938821895e+00
 3  3  3    -9.9280966668e+00

    3
0.0000000000e+00 0.0000000000e+00 0.0000000000e+00
0.0000000000e+00 0.0000000000e+00 0.0000000000e+00
     1      1      3
 1  1  1    -2.0779120300e+00
 1  1  2     2.1107364633e-01
 1  1  3     9.7592196611e+00
 1  2  1    -5.3492235870e-01
 1  2  2    -2.6193634979e-01
 1  2  3    -4.5594734137e+00
 1  3  1     9.7292808429e+00
 1  3  2    -5.8820488900e+00
 1  3  3    -9.5091144766e+00
 2  1  1    -5.3492235870e-01
 2  1  2    -2.6193634979e-01
 2  1  3    -4.5594734137e+00
 2  2  1    -1.5540393338e+00
 2  2  2     1.8858344535e+00
 2  2  3     4.4943932629e+00
 2  3  1    -5.8820488900e+00
 2  3  2     2.9372758284e+00
 2  3  3     5.4900898053e+00
 3  1  1     9.7292808429e+00
 3  1  2    -5.8820488900e+00
 3  1  3    -9.5091144766e+00
 3  2  1    -5.8820488900e+00
 3  2  2     2.9372758284e+00
 3  2  3     5.4900898053e+00
 3  3  1    -9.8620932401e+00
 3  3  2     5.6938821895e+00
 3  3  3     9.9280966668e+00

    4
0.0000000000e+00 0.0000000000e+00 0.0000000000e+00
3.2661059330e+00 0.0000000000e+00 0.0000000000e+00
     1      1      1
 1  1  1    -5.5420130805e+00
 1  1  2     3.3540857043e+00
 1  1  3     0.0000000000e+00
 1  2  1     3.0423030202e-01
 1  2  2    -2.1888758074e-01
 1  2  3     0.0000000000e+00
 1  3  1     0.0000000000e+00
 1  3  2     0.0000000000e+00
 1  3  3    -6.5395970547e-01
 2  1  1     3.0423030202e-01
 2  1  2    -2.1888758074e-01
 2  1  3     0.0000000000e+00
 2  2  1     4.8677254829e-01
 2  2  2    -2.8199379429e-02
 2  2  3     0.0000000000e+00
 2  3  1     0.0000000000e+00
 2  3  2     0.0000000000e+00
 2  3  3    -1.1239873249e+00
 3  1  1     0.0000000000e+00
 3  1  2     0.0000000000e+00
 3  1  3    -6.5395970547e-01
 3  2  1     0.0000000000e+00
 3  2  2     0.0000000000e+00
 3  2  3    -1.1239873249e+00
 3  3  1    -1.3298283225e+00
 3  3  2    -8.2099358665e-01
 3  3  3     0.0000000000e+00

    5
0.0000000000e+00 0.0000000000e+00 0.0000000000e+00
3.2661059330e+00 0.0000000000e+00 0.0000000000e+00
     1      1      2
 1  1  1     5.5305647525e-02
 1  1  2    -9.9699080735e-02
 1  1  3     7.3585544293e-02
 1  2  1     2.7906449804e-02
 1  2  2     2.6060067294e-02
 1  2  3     5.1443006739e-02
 1  3  1    -8.4196210797e-02
 1  3  2     8.0628133163e-02
 1  3  3    -4.3711808497e-02
 2  1  1     2.7906449804e-02
 2  1  2     2.6060067294e-02
 2  1  3     5.1443006739e-02
 2  2  1     9.1185745067e-02
 2  2  2     8.1546283638e-02
 2  2  3     6.0496775557e-02
 2  3  1    -9.4312670369e-02
 2  3  2    -4.2880396665e-02
 2  3  3     1.5110944763e-01
 3  1  1    -8.4196210797e-02
 3  1  2     8.0628133163e-02
 3  1  3    -4.3711808497e-02
 3  2  1    -9.4312670369e-02
 3  2  2    -4.2880396665e-02
 3  2  3     1.5110944763e-01
 3  3  1     2.0213881594e-01
 3  3  2     5.8442259162e-02
 3  3  3    -1.5383624456e-01

    6
0.0000000000e+00 0.0000000000e+00 0.0000000000e+00
3.2661059330e+00 0.0000000000e+00 0.0000000000e+00
     1      1      3
 1  1  1     5.5305647525e-02
 1  1  2    -9.9699080735e-02
 1  1  3    -7.3585544293e-02
 1  2  1     2.7906449804e-02
 1  2  2     2.6060067294e-02
 1  2  3    -5.1443006739e-02
 1  3  1     8.4196210797e-02
 1  3  2    -8.0628133163e-02
 1  3  3    -4.3711808497e-02
 2  1  1     2.7906449804e-02
 2  1  2     2.6060067294e-02
 2  1  3    -5.1443006739e-02
 2  2  1     9.1185745067e-02
 2  2  2     8.1546283638e-02
 2  2  3    -6.0496775557e-02
 2  3  1     9.4312670369e-02
 2  3  2     4.2880396665e-02
 2  3  3     1.5110944763e-01
 3  1  1     8.4196210797e-02
 3  1  2    -8.0628133163e-02
 3  1  3    -4.3711808497e-02
 3  2  1     9.4312670369e-02
 3  2  2     4.2880396665e-02
 3  2  3     1.5110944763e-01
 3  3  1     2.0213881594e-01
 3  3  2     5.8442259162e-02
 3  3  3     1.5383624456e-01

    7
0.0000000000e+00 0.0000000000e+00 0.0000000000e+00
-6.5322118660e+00 0.0000000000e+00 0.0000000000e+00
     1      1      2
 1  1  1    -5.5305647509e-02
 1  1  2    -9.9699080716e-02
 1  1  3     7.3585544329e-02
 1  2  1     2.7906449845e-02
 1  2  2    -2.6060067323e-02
 1  2  3    -5.1443006760e-02
 1  3  1    -8.4196210802e-02
 1  3  2    -8.0628133148e-02
 1  3  3     4.3711808444e-02
 2  1  1     2.7906449845e-02
 2  1  2    -2.6060067323e-02
 2  1  3    -5.1443006760e-02
 2  2  1    -9.1185745096e-02
 2  2  2     8.1546283638e-02
 2  2  3     6.0496775557e-02
 2  3  1     9.4312670384e-02
 2  3  2    -4.2880396665e-02
 2  3  3     1.5110944763e-01
 3  1  1    -8.4196210802e-02
 3  1  2    -8.0628133148e-02
 3  1  3     4.3711808444e-02
 3  2  1     9.4312670384e-02
 3  2  2    -4.2880396665e-02
 3  2  3     1.5110944763e-01
 3  3  1    -2.0213881596e-01
 3  3  2     5.8442259162e-02
 3  3  3    -1.5383624456e-01

    8
0.0000000000e+00 0.0000000000e+00 0.0000000000e+00
-6.5322118660e+00 0.0000000000e+00 0.0000000000e+00
     1      1      3
 1  1  1    -5.5305647509e-02
 1  1  2    -9.9699080716e-02
 1  1  3    -7.3585544329e-02
 1  2  1     2.7906449845e-02
 1  2  2    -2.6060067323e-02
 1  2  3     5.1443006760e-02
 1  3  1     8.4196210802e-02
 1  3  2     8.0628133148e-02
 1  3  3     4.3711808444e-02
 2  1  1     2.7906449845e-02
 2  1  2    -2.6060067323e-02
 2  1  3     5.1443006760e-02
 2  2  1    -9.1185745096e-02
 2  2  2     8.1546283638e-02
 2  2  3    -6.0496775557e-02
 2  3  1    -9.4312670384e-02
 2  3  2     4.2880396665e-02
 2  3  3     1.5110944763e-01
 3  1  1     8.4196210802e-02
 3  1  2     8.0628133148e-02
 3  1  3     4.3711808444e-02
 3  2  1    -9.4312670384e-02
 3  2  2     4.2880396665e-02
 3  2  3     1.5110944763e-01
 3  3  1    -2.0213881596e-01
 3  3  2     5.8442259162e-02
 3  3  3     1.5383624456e-01

    9
0.0000000000e+00 0.0000000000e+00 0.0000000000e+00
-3.2661059330e+00 0.0000000000e+00 0.0000000000e+00
     1      1      1
 1  1  1     5.5420130791e+00
 1  1  2     3.3540857041e+00
 1  1  3     0.0000000000e+00
 1  2  1     3.0423030211e-01
 1  2  2     2.1888758075e-01
 1  2  3     0.0000000000e+00
 1  3  1     0.0000000000e+00
 1  3  2     0.0000000000e+00
 1  3  3     6.5395970587e-01
 2  1  1     3.0423030211e-01
 2  1  2     2.1888758075e-01
 2  1  3     0.0000000000e+00
 2  2  1    -4.8677254828e-01
 2  2  2    -2.8199379429e-02
 2  2  3     0.0000000000e+00
 2  3  1     0.0000000000e+00
 2  3  2     0.0000000000e+00
 2  3  3    -1.1239873249e+00
 3  1  1     0.0000000000e+00
 3  1  2     0.0000000000e+00
 3  1  3     6.5395970587e-01
 3  2  1     0.0000000000e+00
 3  2  2     0.0000000000e+00
 3  2  3    -1.1239873249e+00
 3  3  1     1.3298283228e+00
 3  3  2    -8.2099358665e-01
 3  3  3     0.0000000000e+00

   10
0.0000000000e+00 0.0000000000e+00 0.0000000000e+00
-3.2661059330e+00 0.0000000000e+00 0.0000000000e+00
     1      1      2
 1  1  1     2.0779120303e+00
 1  1  2     2.1107364614e-01
 1  1  3    -9.7592196579e+00
 1  2  1    -5.3492235934e-01
 1  2  2     2.6193634912e-01
 1  2  3    -4.5594734121e+00
 1  3  1    -9.7292808387e+00
 1  3  2    -5.8820488889e+00
 1  3  3     9.5091144746e+00
 2  1  1    -5.3492235934e-01
 2  1  2     2.6193634912e-01
 2  1  3    -4.5594734121e+00
 2  2  1     1.5540393332e+00
 2  2  2     1.8858344535e+00
 2  2  3    -4.4943932629e+00
 2  3  1    -5.8820488889e+00
 2  3  2    -2.9372758284e+00
 2  3  3     5.4900898053e+00
 3  1  1    -9.7292808387e+00
 3  1  2    -5.8820488889e+00
 3  1  3     9.5091144746e+00
 3  2  1    -5.8820488889e+00
 3  2  2    -2.9372758284e+00
 3  2  3     5.4900898053e+00
 3  3  1     9.8620932380e+00
 3  3  2     5.6938821895e+00
 3  3  3    -9.9280966668e+00

   11
0.0000000000e+00 0.0000000000e+00 0.0000000000e+00
-3.2661059330e+00 0.0000000000e+00 0.0000000000e+00
     1      1      3
 1  1  1     2.0779120303e+00
 1  1  2     2.1107364614e-01
 1  1  3     9.7592196579e+00
 1  2  1    -5.3492235934e-01
 1  2  2     2.6193634912e-01
 1  2  3     4.5594734121e+00
 1  3  1     9.7292808387e+00
 1  3  2     5.8820488889e+00
 1  3  3     9.5091144746e+00
 2  1  1    -5.3492235934e-01
 2  1  2     2.6193634912e-01
 2  1  3     4.5594734121e+00
 2  2  1     1.5540393332e+00
 2  2  2     1.8858344535e+00
 2  2  3     4.4943932629e+00
 2  3  1     5.8820488889e+00
 2  3  2     2.9372758284e+00
 2  3  3     5.4900898053e+00
 3  1  1     9.7292808387e+00
 3  1  2     5.8820488889e+00
 3  1  3     9.5091144746e+00
 3  2  1     5.8820488889e+00
 3  2  2     2.9372758284e+00
 3  2  3     5.4900898053e+00
 3  3  1     9.8620932380e+00
 3  3  2     5.6938821895e+00
 3  3  3     9.9280966668e+00

   12
0.0000000000e+00 0.0000000000e+00 0.0000000000e+00
-1.6330529670e+00 2.8285307110e+00 0.0000000000e+00
     1      1      1
 1  1  1    -1.6522279187e-01
 1  1  2    -9.6944510265e-01
 1  1  3     0.0000000000e+00
 1  2  1    -5.5636998874e-02
 1  2  2     2.8066233351e+00
 1  2  3     0.0000000000e+00
 1  3  1     0.0000000000e+00
 1  3  2     0.0000000000e+00
 1  3  3     1.3003814292e+00
 2  1  1    -5.5636998874e-02
 2  1  2     2.8066233351e+00
 2  1  3     0.0000000000e+00
 2  2  1    -1.8745898700e-01
 2  2  2    -5.0714647919e+00
 2  2  3     0.0000000000e+00
 2  3  1     0.0000000000e+00
 2  3  2     0.0000000000e+00
 2  3  3    -4.3520560292e-03
 3  1  1     0.0000000000e+00
 3  1  2     0.0000000000e+00
 3  1  3     1.3003814292e+00
 3  2  1     0.0000000000e+00
 3  2  2     0.0000000000e+00
 3  2  3    -4.3520560292e-03
 3  3  1     1.3759154634e+00
 3  3  2    -7.4116831739e-01
 3  3  3     0.0000000000e+00

   13
0.0000000000e+00 0.0000000000e+00 0.0000000000e+00
-1.6330529670e+00 2.8285307110e+00 0.0000000000e+00
     1      1      2
 1  1  1     7.8800987595e-10
 1  1  2    -2.4806014349e+00
 1  1  3    -1.8619800571e+00
 1  2  1    -9.8860942437e-01
 1  2  2     3.0284570240e-10
 1  2  3     2.1904724993e-09
 1  3  1     4.5872668271e-01
 1  3  2     2.3201600104e-09
 1  3  3     1.9409692605e-09
 2  1  1    -9.8860942437e-01
 2  1  2     3.0284571815e-10
 2  1  3     2.1904724993e-09
 2  2  1     3.0284507138e-10
 2  2  2    -1.7132147623e+00
 2  2  3    -1.2391632874e+01
 2  3  1     2.3201600104e-09
 2  3  2    -1.3125283363e+01
 2  3  3    -1.0980179611e+01
 3  1  1     4.5872668271e-01
 3  1  2     2.3201600104e-09
 3  1  3     1.9409692605e-09
 3  2  1     2.3201600104e-09
 3  2  2    -1.3125283363e+01
 3  2  3    -1.0980179611e+01
 3  3  1     2.0130181281e-09
 3  3  2    -1.1387764379e+01
 3  3  3    -9.9280966668e+00

   14
0.0000000000e+00 0.0000000000e+00 0.0000000000e+00
-1.6330529670e+00 2.8285307110e+00 0.0000000000e+00
     1      1      3
 1  1  1     7.8800987595e-10
 1  1  2    -2.4806014349e+00
 1  1  3     1.8619800571e+00
 1  2  1    -9.8860942437e-01
 1  2  2     3.0284570240e-10
 1  2  3    -2.1904724993e-09
 1  3  1    -4.5872668271e-01
 1  3  2    -2.3201600104e-09
 1  3  3     1.9409692605e-09
 2  1  1    -9.8860942437e-01
 2  1  2     3.0284571815e-10
 2  1  3    -2.1904724993e-09
 2  2  1     3.0284507138e-10
 2  2  2    -1.7132147623e+00
 2  2  3     1.2391632874e+01
 2  3  1    -2.3201600104e-09
 2  3  2     1.3125283363e+01
 2  3  3    -1.0980179611e+01
 3  1  1    -4.5872668271e-01
 3  1  2    -2.3201600104e-09
 3  1  3     1.9409692605e-09
 3  2  1    -2.3201600104e-09
 3  2  2     1.3125283363e+01
 3  2  3    -1.0980179611e+01
 3  3  1     2.0130181281e-09
 3  3  2    -1.1387764379e+01
 3  3  3     9.9280966668e+00

   15
0.0000000000e+00 0.0000000000e+00 0.0000000000e+00
1.6330529660e+00 2.8285307110e+00 0.0000000000e+00
     1      1      1
 1  1  1     1.6522279225e-01
 1  1  2    -9.6944510066e-01
 1  1  3     0.0000000000e+00
 1  2  1    -5.5636997949e-02
 1  2  2    -2.8066233333e+00
 1  2  3     0.0000000000e+00
 1  3  1     0.0000000000e+00
 1  3  2     0.0000000000e+00
 1  3  3    -1.3003814292e+00
 2  1  1    -5.5636997949e-02
 2  1  2    -2.8066233333e+00
 2  1  3     0.0000000000e+00
 2  2  1     1.8745898879e-01
 2  2  2    -5.0714647919e+00
 2  2  3     0.0000000000e+00
 2  3  1     0.0000000000e+00
 2  3  2     0.0000000000e+00
 2  3  3    -4.3520560292e-03
 3  1  1     0.0000000000e+00
 3  1  2     0.0000000000e+00
 3  1  3    -1.3003814292e+00
 3  2  1     0.0000000000e+00
 3  2  2     0.0000000000e+00
 3  2  3    -4.3520560292e-03
 3  3  1    -1.3759154632e+00
 3  3  2    -7.4116831739e-01
 3  3  3     0.0000000000e+00

   16
0.0000000000e+00 0.0000000000e+00 0.0000000000e+00
1.6330529660e+00 2.8285307110e+00 0.0000000000e+00
     1      1      2
 1  1  1     3.2362402016e-01
 1  1  2    -1.6834347074e-01
 1  1  3    -1.8524198882e-01
 1  2  1    -1.1565614706e-01
 1  2  2     1.3829371393e-01
 1  2  3    -4.7177841085e-02
 1  3  1    -2.7682393938e-01
 1  3  2    -9.0130925293e-02
 1  3  3     4.4113644476e-02
 2  1  1    -1.1565614706e-01
 2  1  2     1.3829371393e-01
 2  1  3    -4.7177841085e-02
 2  2  1     4.7036592377e-02
 2  2  2     3.8234447563e-01
 2  2  3    -1.3076571049e-01
 2  3  1    -9.0130925293e-02
 2  3  2    -1.7274971167e-01
 2  3  3     2.5469024530e-02
 3  1  1    -2.7682393938e-01
 3  1  2    -9.0130925293e-02
 3  1  3     4.4113644476e-02
 3  2  1    -9.0130925293e-02
 3  2  2    -1.7274971167e-01
 3  2  3     2.5469024530e-02
 3  3  1    -1.2332785766e-01
 3  3  2    -7.1203371863e-02
 3  3  3    -3.3399192223e-02

   17
0.0000000000e+00 0.0000000000e+00 0.0000000000e+00
1.6330529660e+00 2.8285307110e+00 0.0000000000e+00
     1      1      3
 1  1  1     3.2362402016e-01
 1  1  2    -1.6834347074e-01
 1  1  3     1.8524198882e-01
 1  2  1    -1.1565614706e-01
 1  2  2     1.3829371393e-01
 1  2  3     4.7177841085e-02
 1  3  1     2.7682393938e-01
 1  3  2     9.0130925293e-02
 1  3  3     4.4113644476e-02
 2  1  1    -1.1565614706e-01
 2  1  2     1.3829371393e-01
 2  1  3     4.7177841085e-02
 2  2  1     4.7036592377e-02
 2  2  2     3.8234447563e-01
 2  2  3     1.3076571049e-01
 2  3  1     9.0130925293e-02
 2  3  2     1.7274971167e-01
 2  3  3     2.5469024530e-02
 3  1  1     2.7682393938e-01
 3  1  2     9.0130925293e-02
 3  1  3     4.4113644476e-02
 3  2  1     9.0130925293e-02
 3  2  2     1.7274971167e-01
 3  2  3     2.5469024530e-02
 3  3  1    -1.2332785766e-01
 3  3  2    -7.1203371863e-02
 3  3  3     3.3399192223e-02

   18
0.0000000000e+00 0.0000000000e+00 0.0000000000e+00
4.8991588990e+00 2.8285307110e+00 0.0000000000e+00
     1      1      1
 1  1  1     1.7161233894e-01
 1  1  2     2.4338671932e-01
 1  1  3     0.0000000000e+00
 1  2  1     1.6173982753e-02
 1  2  2    -7.3977221599e-02
 1  2  3     0.0000000000e+00
 1  3  1     0.0000000000e+00
 1  3  2     0.0000000000e+00
 1  3  3    -8.3284974481e-02
 2  1  1     1.6173982753e-02
 2  1  2    -7.3977221599e-02
 2  1  3     0.0000000000e+00
 2  2  1     3.1956678235e-01
 2  2  2     4.0195678636e-02
 2  2  3     0.0000000000e+00
 2  3  1     0.0000000000e+00
 2  3  2     0.0000000000e+00
 2  3  3    -4.8084602468e-02
 3  1  1     0.0000000000e+00
 3  1  2     0.0000000000e+00
 3  1  3    -8.3284974481e-02
 3  2  1     0.0000000000e+00
 3  2  2     0.0000000000e+00
 3  2  3    -4.8084602468e-02
 3  3  1     6.6836838787e-03
 3  3  2     3.8588266891e-03
 3  3  3     0.0000000000e+00

   19
0.0000000000e+00 0.0000000000e+00 0.0000000000e+00
-4.8991589000e+00 2.8285307110e+00 0.0000000000e+00
     1      1      1
 1  1  1    -1.7161233903e-01
 1  1  2     2.4338671926e-01
 1  1  3     0.0000000000e+00
 1  2  1     1.6173982840e-02
 1  2  2     7.3977221585e-02
 1  2  3     0.0000000000e+00
 1  3  1     0.0000000000e+00
 1  3  2     0.0000000000e+00
 1  3  3     8.3284974498e-02
 2  1  1     1.6173982840e-02
 2  1  2     7.3977221585e-02
 2  1  3     0.0000000000e+00
 2  2  1    -3.1956678237e-01
 2  2  2     4.0195678636e-02
 2  2  3     0.0000000000e+00
 2  3  1     0.0000000000e+00
 2  3  2     0.0000000000e+00
 2  3  3    -4.8084602468e-02
 3  1  1     0.0000000000e+00
 3  1  2     0.0000000000e+00
 3  1  3     8.3284974498e-02
 3  2  1     0.0000000000e+00
 3  2  2     0.0000000000e+00
 3  2  3    -4.8084602468e-02
 3  3  1    -6.6836838800e-03
 3  3  2     3.8588266891e-03
 3  3  3     0.0000000000e+00

   20
0.0000000000e+00 0.0000000000e+00 0.0000000000e+00
-4.8991589000e+00 2.8285307110e+00 0.0000000000e+00
     1      1      2
 1  1  1    -3.2362402002e-01
 1  1  2    -1.6834347064e-01
 1  1  3    -1.8524198886e-01
 1  2  1    -1.1565614699e-01
 1  2  2    -1.3829371407e-01
 1  2  3     4.7177841131e-02
 1  3  1    -2.7682393945e-01
 1  3  2     9.0130925354e-02
 1  3  3    -4.4113644485e-02
 2  1  1    -1.1565614699e-01
 2  1  2    -1.3829371407e-01
 2  1  3     4.7177841131e-02
 2  2  1    -4.7036592512e-02
 2  2  2     3.8234447563e-01
 2  2  3    -1.3076571049e-01
 2  3  1     9.0130925354e-02
 2  3  2    -1.7274971167e-01
 2  3  3     2.5469024530e-02
 3  1  1    -2.7682393945e-01
 3  1  2     9.0130925354e-02
 3  1  3    -4.4113644485e-02
 3  2  1     9.0130925354e-02
 3  2  2    -1.7274971167e-01
 3  2  3     2.5469024530e-02
 3  3  1     1.2332785768e-01
 3  3  2    -7.1203371863e-02
 3  3  3    -3.3399192223e-02

   21
0.0000000000e+00 0.0000000000e+00 0.0000000000e+00
-4.8991589000e+00 2.8285307110e+00 0.0000000000e+00
     1      1      3
 1  1  1    -3.2362402002e-01
 1  1  2    -1.6834347064e-01
 1  1  3     1.8524198886e-01
 1  2  1    -1.1565614699e-01
 1  2  2    -1.3829371407e-01
 1  2  3    -4.7177841131e-02
 1  3  1     2.7682393945e-01
 1  3  2    -9.0130925354e-02
 1  3  3    -4.4113644485e-02
 2  1  1    -1.1565614699e-01
 2  1  2    -1.3829371407e-01
 2  1  3    -4.7177841131e-02
 2  2  1    -4.7036592512e-02
 2  2  2     3.8234447563e-01
 2  2  3     1.3076571049e-01
 2  3  1    -9.0130925354e-02
 2  3  2     1.7274971167e-01
 2  3  3     2.5469024530e-02
 3  1  1     2.7682393945e-01
 3  1  2    -9.0130925354e-02
 3  1  3    -4.4113644485e-02
 3  2  1    -9.0130925354e-02
 3  2  2     1.7274971167e-01
 3  2  3     2.5469024530e-02
 3  3  1     1.2332785768e-01
 3  3  2    -7.1203371863e-02
 3  3  3     3.3399192223e-02

   22
0.0000000000e+00 0.0000000000e+00 0.0000000000e+00
-3.2661059340e+00 5.6570614220e+00 0.0000000000e+00
     1      1      2
 1  1  1    -1.0411713866e-01
 1  1  2     6.2728928671e-02
 1  1  3     1.0831991837e-01
 1  2  1    -5.7474327976e-02
 1  2  2    -3.1354566334e-02
 1  2  3    -3.1389106534e-02
 1  3  1    -5.9134928603e-02
 1  3  2     1.0878180842e-01
 1  3  3    -1.0900871607e-01
 2  1  1    -5.7474327976e-02
 2  1  2    -3.1354566334e-02
 2  1  3    -3.1389106534e-02
 2  2  1     4.6592225961e-02
 2  2  2     7.3212737419e-02
 2  2  3     2.5762401467e-02
 2  3  1    -6.6158995109e-02
 2  3  2    -6.7941678897e-02
 2  3  3    -1.1341026042e-01
 3  1  1    -5.9134928603e-02
 3  1  2     1.0878180842e-01
 3  1  3    -1.0900871607e-01
 3  2  1    -6.6158995109e-02
 3  2  2    -6.7941678897e-02
 3  2  3    -1.1341026042e-01
 3  3  1    -1.5168188906e-01
 3  3  2     1.4583622022e-01
 3  3  3    -1.5383624456e-01

   23
0.0000000000e+00 0.0000000000e+00 0.0000000000e+00
-3.2661059340e+00 5.6570614220e+00 0.0000000000e+00
     1      1      3
 1  1  1    -1.0411713866e-01
 1  1  2     6.2728928671e-02
 1  1  3    -1.0831991837e-01
 1  2  1    -5.7474327976e-02
 1  2  2    -3.1354566334e-02
 1  2  3     3.1389106534e-02
 1  3  1     5.9134928603e-02
 1  3  2    -1.0878180842e-01
 1  3  3    -1.0900871607e-01
 2  1  1    -5.7474327976e-02
 2  1  2    -3.1354566334e-02
 2  1  3     3.1389106534e-02
 2  2  1     4.6592225961e-02
 2  2  2     7.3212737419e-02
 2  2  3    -2.5762401467e-02
 2  3  1     6.6158995109e-02
 2  3  2     6.7941678897e-02
 2  3  3    -1.1341026042e-01
 3  1  1     5.9134928603e-02
 3  1  2    -1.0878180842e-01
 3  1  3    -1.0900871607e-01
 3  2  1     6.6158995109e-02
 3  2  2     6.7941678897e-02
 3  2  3    -1.1341026042e-01
 3  3  1    -1.5168188906e-01
 3  3  2     1.4583622022e-01
 3  3  3     1.5383624456e-01

   24
0.0000000000e+00 0.0000000000e+00 0.0000000000e+00
-1.0000006379e-09 5.6570614220e+00 0.0000000000e+00
     1      1      1
 1  1  1     8.2181088384e-11
 1  1  2    -4.7921461462e-02
 1  1  3     0.0000000000e+00
 1  2  1    -2.0849102803e-01
 1  2  2    -3.4870570150e-11
 1  2  3     0.0000000000e+00
 1  3  1     0.0000000000e+00
 1  3  2     0.0000000000e+00
 1  3  3     1.1414613626e-12
 2  1  1    -2.0849102803e-01
 2  1  2    -3.4870570150e-11
 2  1  3     0.0000000000e+00
 2  2  1    -3.4870570150e-11
 2  2  2     1.9726497957e-01
 2  2  3     0.0000000000e+00
 2  3  1     0.0000000000e+00
 2  3  2     0.0000000000e+00
 2  3  3    -6.4573177726e-03
 3  1  1     0.0000000000e+00
 3  1  2     0.0000000000e+00
 3  1  3     1.1414613626e-12
 3  2  1     0.0000000000e+00
 3  2  2     0.0000000000e+00
 3  2  3    -6.4573177726e-03
 3  3  1     1.2047129802e-11
 3  3  2    -6.8151360990e-02
 3  3  3     0.0000000000e+00

   25
0.0000000000e+00 0.0000000000e+00 0.0000000000e+00
-1.0000000827e-09 5.6570614220e+00 0.0000000000e+00
     1      1      2
 1  1  1     1.0411713868e-01
 1  1  2     6.2728928649e-02
 1  1  3     1.0831991835e-01
 1  2  1    -5.7474327970e-02
 1  2  2     3.1354566308e-02
 1  2  3     3.1389106525e-02
 1  3  1    -5.9134928588e-02
 1  3  2    -1.0878180840e-01
 1  3  3     1.0900871611e-01
 2  1  1    -5.7474327970e-02
 2  1  2     3.1354566308e-02
 2  1  3     3.1389106525e-02
 2  2  1    -4.6592225987e-02
 2  2  2     7.3212737419e-02
 2  2  3     2.5762401467e-02
 2  3  1     6.6158995133e-02
 2  3  2    -6.7941678897e-02
 2  3  3    -1.1341026042e-01
 3  1  1    -5.9134928588e-02
 3  1  2    -1.0878180840e-01
 3  1  3     1.0900871611e-01
 3  2  1     6.6158995133e-02
 3  2  2    -6.7941678897e-02
 3  2  3    -1.1341026042e-01
 3  3  1     1.5168188901e-01
 3  3  2     1.4583622022e-01
 3  3  3    -1.5383624456e-01

   26
0.0000000000e+00 0.0000000000e+00 0.0000000000e+00
-1.0000000827e-09 5.6570614220e+00 0.0000000000e+00
     1      1      3
 1  1  1     1.0411713868e-01
 1  1  2     6.2728928649e-02
 1  1  3    -1.0831991835e-01
 1  2  1    -5.7474327970e-02
 1  2  2     3.1354566308e-02
 1  2  3    -3.1389106525e-02
 1  3  1     5.9134928588e-02
 1  3  2     1.0878180840e-01
 1  3  3     1.0900871611e-01
 2  1  1    -5.7474327970e-02
 2  1  2     3.1354566308e-02
 2  1  3    -3.1389106525e-02
 2  2  1    -4.6592225987e-02
 2  2  2     7.3212737419e-02
 2  2  3    -2.5762401467e-02
 2  3  1    -6.6158995133e-02
 2  3  2     6.7941678897e-02
 2  3  3    -1.1341026042e-01
 3  1  1     5.9134928588e-02
 3  1  2     1.0878180840e-01
 3  1  3     1.0900871611e-01
 3  2  1    -6.6158995133e-02
 3  2  2     6.7941678897e-02
 3  2  3    -1.1341026042e-01
 3  3  1     1.5168188901e-01
 3  3  2     1.4583622022e-01
 3  3  3     1.5383624456e-01

   27
0.0000000000e+00 0.0000000000e+00 0.0000000000e+00
1.0000000827e-09 -5.6570614220e+00 0.0000000000e+00
     1      1      1
 1  1  1     3.8017093044e-12
 1  1  2    -3.1011918386e-01
 1  1  3     0.0000000000e+00
 1  2  1     1.4430628913e-01
 1  2  2     4.5437968353e-11
 1  2  3     0.0000000000e+00
 1  3  1     0.0000000000e+00
 1  3  2     0.0000000000e+00
 1  3  3    -1.6999850512e-11
 2  1  1     1.4430628913e-01
 2  1  2     4.5437963131e-11
 2  1  3     0.0000000000e+00
 2  2  1     4.5437983442e-11
 2  2  2    -2.5704561219e-01
 2  2  3     0.0000000000e+00
 2  3  1     0.0000000000e+00
 2  3  2     0.0000000000e+00
 2  3  3     9.6169204936e-02
 3  1  1     0.0000000000e+00
 3  1  2     0.0000000000e+00
 3  1  3    -1.6999850512e-11
 3  2  1     0.0000000000e+00
 3  2  2     0.0000000000e+00
 3  2  3     9.6169204936e-02
 3  3  1     1.3642512051e-12
 3  3  2    -7.7176533781e-03
 3  3  3     0.0000000000e+00

   28
0.0000000000e+00 0.0000000000e+00 0.0000000000e+00
1.6330529670e+00 -2.8285307110e+00 0.0000000000e+00
     1      1      1
 1  1  1    -1.5139780230e+00
 1  1  2     6.0841866381e-01
 1  1  3     0.0000000000e+00
 1  2  1     2.7444659631e+00
 1  2  2    -1.6055221015e+00
 1  2  3     0.0000000000e+00
 1  3  1     0.0000000000e+00
 1  3  2     0.0000000000e+00
 1  3  3     6.4642172331e-01
 2  1  1     2.7444659631e+00
 2  1  2    -1.6055221015e+00
 2  1  3     0.0000000000e+00
 2  2  1    -3.8939442946e+00
 2  2  2     2.1066049022e+00
 2  2  3     0.0000000000e+00
 2  3  1     0.0000000000e+00
 2  3  2     0.0000000000e+00
 2  3  3     1.1283393809e+00
 3  1  1     0.0000000000e+00
 3  1  2     0.0000000000e+00
 3  1  3     6.4642172331e-01
 3  2  1     0.0000000000e+00
 3  2  2     0.0000000000e+00
 3  2  3     1.1283393809e+00
 3  3  1     4.6087140390e-02
 3  3  2     1.5621619040e+00
 3  3  3     0.0000000000e+00

   29
0.0000000000e+00 0.0000000000e+00 0.0000000000e+00
1.6330529670e+00 -2.8285307110e+00 0.0000000000e+00
     1      1      2
 1  1  1     1.7188682894e-02
 1  1  2    -5.7104196377e-02
 1  1  3     1.9218017021e-02
 1  2  1    -6.4506470319e-02
 1  2  2    -7.1294673092e-02
 1  2  3     2.0053900200e-02
 1  3  1    -4.7283771735e-02
 1  3  2    -7.3001263717e-02
 1  3  3    -1.5272052455e-01
 2  1  1    -6.4506470319e-02
 2  1  2    -7.1294673092e-02
 2  1  3     2.0053900200e-02
 2  2  1     7.1777796976e-02
 2  2  2    -6.0684672485e-02
 2  2  3     1.1486430290e-01
 2  3  1     1.0193953982e-01
 2  3  2    -7.9792835776e-02
 2  3  3    -3.7699187211e-02
 3  1  1    -4.7283771735e-02
 3  1  2    -7.3001263717e-02
 3  1  3    -1.5272052455e-01
 3  2  1     1.0193953982e-01
 3  2  2    -7.9792835776e-02
 3  2  3    -3.7699187211e-02
 3  3  1     5.0456926949e-02
 3  3  2    -2.0427847938e-01
 3  3  3    -1.5383624456e-01

   30
0.0000000000e+00 0.0000000000e+00 0.0000000000e+00
1.6330529670e+00 -2.8285307110e+00 0.0000000000e+00
     1      1      3
 1  1  1     1.7188682894e-02
 1  1  2    -5.7104196377e-02
 1  1  3    -1.9218017021e-02
 1  2  1    -6.4506470319e-02
 1  2  2    -7.1294673092e-02
 1  2  3    -2.0053900200e-02
 1  3  1     4.7283771735e-02
 1  3  2     7.3001263717e-02
 1  3  3    -1.5272052455e-01
 2  1  1    -6.4506470319e-02
 2  1  2    -7.1294673092e-02
 2  1  3    -2.0053900200e-02
 2  2  1     7.1777796976e-02
 2  2  2    -6.0684672485e-02
 2  2  3    -1.1486430290e-01
 2  3  1    -1.0193953982e-01
 2  3  2     7.9792835776e-02
 2  3  3    -3.7699187211e-02
 3  1  1     4.7283771735e-02
 3  1  2     7.3001263717e-02
 3  1  3    -1.5272052455e-01
 3  2  1    -1.0193953982e-01
 3  2  2     7.9792835776e-02
 3  2  3    -3.7699187211e-02
 3  3  1     5.0456926949e-02
 3  3  2    -2.0427847938e-01
 3  3  3     1.5383624456e-01

   31
0.0000000000e+00 0.0000000000e+00 0.0000000000e+00
4.8991589000e+00 -2.8285307110e+00 0.0000000000e+00
     1      1      1
 1  1  1     2.7472798499e-02
 1  1  2    -2.2435245559e-01
 1  1  3     0.0000000000e+00
 1  2  1    -1.4406767232e-01
 1  2  2    -3.7194841815e-02
 1  2  3     0.0000000000e+00
 1  3  1     0.0000000000e+00
 1  3  2     0.0000000000e+00
 1  3  3    -5.5922012288e-03
 2  1  1    -1.4406767232e-01
 2  1  2    -3.7194841815e-02
 2  1  3     0.0000000000e+00
 2  2  1     1.0186248199e-01
 2  2  2     1.4968069682e-01
 2  2  3     0.0000000000e+00
 2  3  1     0.0000000000e+00
 2  3  2     0.0000000000e+00
 2  3  3     3.2286588863e-03
 3  1  1     0.0000000000e+00
 3  1  2     0.0000000000e+00
 3  1  3    -5.5922012288e-03
 3  2  1     0.0000000000e+00
 3  2  2     0.0000000000e+00
 3  2  3     3.2286588863e-03
 3  3  1    -5.9020809893e-02
 3  3  2     3.4075680495e-02
 3  3  3     0.0000000000e+00

   32
0.0000000000e+00 0.0000000000e+00 0.0000000000e+00
-4.8991588990e+00 -2.8285307110e+00 0.0000000000e+00
     1      1      1
 1  1  1    -2.7472798318e-02
 1  1  2    -2.2435245561e-01
 1  1  3     0.0000000000e+00
 1  2  1    -1.4406767230e-01
 1  2  2     3.7194841762e-02
 1  2  3     0.0000000000e+00
 1  3  1     0.0000000000e+00
 1  3  2     0.0000000000e+00
 1  3  3     5.5922012277e-03
 2  1  1    -1.4406767230e-01
 2  1  2     3.7194841762e-02
 2  1  3     0.0000000000e+00
 2  2  1    -1.0186248204e-01
 2  2  2     1.4968069682e-01
 2  2  3     0.0000000000e+00
 2  3  1     0.0000000000e+00
 2  3  2     0.0000000000e+00
 2  3  3     3.2286588863e-03
 3  1  1     0.0000000000e+00
 3  1  2     0.0000000000e+00
 3  1  3     5.5922012277e-03
 3  2  1     0.0000000000e+00
 3  2  2     0.0000000000e+00