 1824

    1
0.0000000000e+00 0.0000000000e+00 0.0000000000e+00
0.0000000000e+00 0.0000000000e+00 0.0000000000e+00
     1      1      1
 1  1  1     0.0000000000e+00
 1  1  2     0.0000000000e+00
 1  1  3     0.0000000000e+00
 1  2  1     0.0000000000e+00
 1  2  2     0.0000000000e+00
 1  2  3     0.0000000000e+00
 1  3  1     0.0000000000e+00
 1  3  2     0.0000000000e+00
 1  3  3     0.0000000000e+00
 2  1  1     0.0000000000e+00
 2  1  2     0.0000000000e+00
 2  1  3     0.0000000000e+00
 2  2  1     0.0000000000e+00
 2  2  2     0.0000000000e+00
 2  2  3     0.0000000000e+00
 2  3  1     0.0000000000e+00
 2  3  2     0.0000000000e+00
 2  3  3     0.0000000000e+00
 3  1  1     0.0000000000e+00
 3  1  2     0.0000000000e+00
 3  1  3     0.0000000000e+00
 3  2  1     0.0000000000e+00
 3  2  2     0.0000000000e+00
 3  2  3     0.0000000000e+00
 3  3  1     0.0000000000e+00
 3  3  2     0.0000000000e+00
 3  3  3     0.0000000000e+00

    2
0.0000000000e+00 0.0000000000e+00 0.0000000000e+00
0.0000000000e+00 0.0000000000e+00 0.0000000000e+00
     1      1      3
 1  1  1     0.0000000000e+00
 1  1  2     0.0000000000e+00
 1  1  3     0.0000000000e+00
 1  2  1     0.0000000000e+00
 1  2  2     0.0000000000e+00
 1  2  3     0.0000000000e+00
 1  3  1    -3.9497480165e-03
 1  3  2    -7.1629237198e-13
 1  3  3     0.0000000000e+00
 2  1  1     0.0000000000e+00
 2  1  2     0.0000000000e+00
 2  1  3     0.0000000000e+00
 2  2  1     0.0000000000e+00
 2  2  2     0.0000000000e+00
 2  2  3     0.0000000000e+00
 2  3  1    -7.1629237198e-13
 2  3  2    -3.9497480155e-03
 2  3  3     0.0000000000e+00
 3  1  1    -3.9497480165e-03
 3  1  2    -7.1629237198e-13
 3  1  3     0.0000000000e+00
 3  2  1    -7.1629237198e-13
 3  2  2    -3.9497480155e-03
 3  2  3     0.0000000000e+00
 3  3  1     0.0000000000e+00
 3  3  2     0.0000000000e+00
 3  3  3    -1.8515787367e-03

    3
0.0000000000e+00 0.0000000000e+00 0.0000000000e+00
0.0000000000e+00 0.0000000000e+00 0.0000000000e+00
     1      1      4
 1  1  1     5.5123662763e-01
 1  1  2     6.4423097930e-01
 1  1  3    -1.0450176676e+01
 1  2  1     1.3293103697e+00
 1  2  2    -2.1178522825e-01
 1  2  3     5.5941411408e+00
 1  3  1    -1.0744458599e+01
 1  3  2     6.1280726038e+00
 1  3  3     1.0811163911e+01
 2  1  1     1.3293103697e+00
 2  1  2    -2.1178522825e-01
 2  1  3     5.5941411408e+00
 2  2  1     9.7480708257e-01
 2  2  2    -1.5252927257e+00
 2  2  3    -3.9906188887e+00
 2  3  1     6.1280726038e+00
 2  3  2    -3.6683698640e+00
 2  3  3    -6.2418283942e+00
 3  1  1    -1.0744458599e+01
 3  1  2     6.1280726038e+00
 3  1  3     1.0811163911e+01
 3  2  1     6.1280726038e+00
 3  2  2    -3.6683698640e+00
 3  2  3    -6.2418283942e+00
 3  3  1     1.0520574475e+01
 3  3  2    -6.0740565053e+00
 3  3  3    -1.0996879975e+01

    4
0.0000000000e+00 0.0000000000e+00 0.0000000000e+00
0.0000000000e+00 0.0000000000e+00 0.0000000000e+00
     1      1      6
 1  1  1     5.5123662763e-01
 1  1  2     6.4423097930e-01
 1  1  3     1.0450176676e+01
 1  2  1     1.3293103697e+00
 1  2  2    -2.1178522825e-01
 1  2  3    -5.5941411408e+00
 1  3  1     1.0744458599e+01
 1  3  2    -6.1280726038e+00
 1  3  3     1.0811163911e+01
 2  1  1     1.3293103697e+00
 2  1  2    -2.1178522825e-01
 2  1  3    -5.5941411408e+00
 2  2  1     9.7480708257e-01
 2  2  2    -1.5252927257e+00
 2  2  3     3.9906188887e+00
 2  3  1    -6.1280726038e+00
 2  3  2     3.6683698640e+00
 2  3  3    -6.2418283942e+00
 3  1  1     1.0744458599e+01
 3  1  2    -6.1280726038e+00
 3  1  3     1.0811163911e+01
 3  2  1    -6.1280726038e+00
 3  2  2     3.6683698640e+00
 3  2  3    -6.2418283942e+00
 3  3  1     1.0520574475e+01
 3  3  2    -6.0740565053e+00
 3  3  3     1.0996879975e+01

    5
0.0000000000e+00 0.0000000000e+00 0.0000000000e+00
-3.1835995010e+00 0.0000000000e+00 0.0000000000e+00
     1      1      1
 1  1  1    -1.5666379708e-09
 1  1  2    -1.1699026812e+01
 1  1  3     0.0000000000e+00
 1  2  1     1.5301701754e+00
 1  2  2     1.8703419623e-10
 1  2  3     0.0000000000e+00
 1  3  1     0.0000000000e+00
 1  3  2     0.0000000000e+00
 1  3  3     8.7090802926e-10
 2  1  1     1.5301701754e+00
 2  1  2     1.8703419623e-10
 2  1  3     0.0000000000e+00
 2  2  1     1.8703419623e-10
 2  2  2     1.0313357705e+00
 2  2  3     0.0000000000e+00
 2  3  1     0.0000000000e+00
 2  3  2     0.0000000000e+00
 2  3  3     4.8023228989e+00
 3  1  1     0.0000000000e+00
 3  1  2     0.0000000000e+00
 3  1  3     8.7090802926e-10
 3  2  1     0.0000000000e+00
 3  2  2     0.0000000000e+00
 3  2  3     4.8023228989e+00
 3  3  1     1.8024409765e-10
 3  3  2     9.9389410646e-01
 3  3  3     0.0000000000e+00

    6
0.0000000000e+00 0.0000000000e+00 0.0000000000e+00
-3.1835995010e+00 0.0000000000e+00 0.0000000000e+00
     1      1      3
 1  1  1     1.0570802602e-12
 1  1  2    -2.0552735085e-03
 1  1  3     1.8310223300e-03
 1  2  1     3.9420895833e-03
 1  2  2    -1.9163347258e-13
 1  2  3     1.2689797166e-12
 1  3  1     1.9067415120e-03
 1  3  2     2.6687005239e-13
 1  3  3     1.2093755247e-13
 2  1  1     3.9420895833e-03
 2  1  2    -1.9163347258e-13
 2  1  3     1.2689797166e-12
 2  2  1    -1.9163347258e-13
 2  2  2    -1.0566968987e-03
 2  2  3     6.9973523568e-03
 2  3  1     2.6687005239e-13
 2  3  2     1.4715631508e-03
 2  3  3     6.6686855331e-04
 3  1  1     1.9067415120e-03
 3  1  2     2.6687005239e-13
 3  1  3     1.2093755247e-13
 3  2  1     2.6687005239e-13
 3  2  2     1.4715631508e-03
 3  2  3     6.6686855331e-04
 3  3  1    -1.1990971505e-13
 3  3  2    -6.6120089727e-04
 3  3  3     9.0611206636e-03

    7
0.0000000000e+00 0.0000000000e+00 0.0000000000e+00
3.1835995010e+00 0.0000000000e+00 0.0000000000e+00
     1      1      4
 1  1  1    -5.5123662643e-01
 1  1  2     6.4423097946e-01
 1  1  3    -1.0450176680e+01
 1  2  1     1.3293103694e+00
 1  2  2     2.1178522770e-01
 1  2  3    -5.5941411423e+00
 1  3  1    -1.0744458604e+01
 1  3  2    -6.1280726052e+00
 1  3  3    -1.0811163913e+01
 2  1  1     1.3293103694e+00
 2  1  2     2.1178522770e-01
 2  1  3    -5.5941411423e+00
 2  2  1    -9.7480708313e-01
 2  2  2    -1.5252927257e+00
 2  2  3    -3.9906188887e+00
 2  3  1    -6.1280726052e+00
 2  3  2    -3.6683698640e+00
 2  3  3    -6.2418283942e+00
 3  1  1    -1.0744458604e+01
 3  1  2    -6.1280726052e+00
 3  1  3    -1.0811163913e+01
 3  2  1    -6.1280726052e+00
 3  2  2    -3.6683698640e+00
 3  2  3    -6.2418283942e+00
 3  3  1    -1.0520574478e+01
 3  3  2    -6.0740565053e+00
 3  3  3    -1.0996879975e+01

    8
0.0000000000e+00 0.0000000000e+00 0.0000000000e+00
3.1835995010e+00 0.0000000000e+00 0.0000000000e+00
     1      1      6
 1  1  1    -5.5123662643e-01
 1  1  2     6.4423097946e-01
 1  1  3     1.0450176680e+01
 1  2  1     1.3293103694e+00
 1  2  2     2.1178522770e-01
 1  2  3     5.5941411423e+00
 1  3  1     1.0744458604e+01
 1  3  2     6.1280726052e+00
 1  3  3    -1.0811163913e+01
 2  1  1     1.3293103694e+00
 2  1  2     2.1178522770e-01
 2  1  3     5.5941411423e+00
 2  2  1    -9.7480708313e-01
 2  2  2    -1.5252927257e+00
 2  2  3     3.9906188887e+00
 2  3  1     6.1280726052e+00
 2  3  2     3.6683698640e+00
 2  3  3    -6.2418283942e+00
 3  1  1     1.0744458604e+01
 3  1  2     6.1280726052e+00
 3  1  3    -1.0811163913e+01
 3  2  1     6.1280726052e+00
 3  2  2     3.6683698640e+00
 3  2  3    -6.2418283942e+00
 3  3  1    -1.0520574478e+01
 3  3  2    -6.0740565053e+00
 3  3  3     1.0996879975e+01

    9
0.0000000000e+00 0.0000000000e+00 0.0000000000e+00
-1.5917997500e+00 2.7570780430e+00 0.0000000000e+00
     1      1      1
 1  1  1     1.2004582487e+00
 1  1  2     2.2232550678e+00
 1  1  3     0.0000000000e+00
 1  2  1    -4.3913434240e+00
 1  2  2    -3.4187874701e+00
 1  2  3     0.0000000000e+00
 1  3  1     0.0000000000e+00
 1  3  2     0.0000000000e+00
 1  3  3    -4.1589336286e+00
 2  1  1    -4.3913434240e+00
 2  1  2    -3.4187874701e+00
 2  1  3     0.0000000000e+00
 2  2  1     8.0380331916e+00
 2  2  2     3.1105904510e+00
 2  2  3     0.0000000000e+00
 2  3  1     0.0000000000e+00
 2  3  2     0.0000000000e+00
 2  3  3    -2.4011614495e+00
 3  1  1     0.0000000000e+00
 3  1  2     0.0000000000e+00
 3  1  3    -4.1589336286e+00
 3  2  1     0.0000000000e+00
 3  2  2     0.0000000000e+00
 3  2  3    -2.4011614495e+00
 3  3  1    -8.6073754506e-01
 3  3  2    -4.9694705323e-01
 3  3  3     0.0000000000e+00

   10
0.0000000000e+00 0.0000000000e+00 0.0000000000e+00
-1.5917997500e+00 2.7570780430e+00 0.0000000000e+00
     1      1      3
 1  1  1    -5.7565032429e-04
 1  1  2     3.6097377125e-03
 1  1  3     5.7057698522e-03
 1  2  1     6.1105616750e-04
 1  2  2    -1.9231730396e-03
 1  2  3     2.2370865248e-03
 1  3  1     1.5803577413e-03
 1  3  2    -1.8843775747e-04
 1  3  3    -5.7752510829e-04
 2  1  1     6.1105616750e-04
 2  1  2    -1.9231730396e-03
 2  1  3     2.2370865248e-03
 2  2  1     3.2706957530e-03
 2  2  2    -2.0537525089e-03
 2  2  3     3.1226048364e-03
 2  3  1    -1.8843775747e-04
 2  3  2     1.7979469213e-03
 2  3  3    -3.3343427666e-04
 3  1  1     1.5803577413e-03
 3  1  2    -1.8843775747e-04
 3  1  3    -5.7752510829e-04
 3  2  1    -1.8843775747e-04
 3  2  2     1.7979469213e-03
 3  2  3    -3.3343427666e-04
 3  3  1     5.7261677418e-04
 3  3  2     3.3060044864e-04
 3  3  3     9.0611206636e-03

   11
0.0000000000e+00 0.0000000000e+00 0.0000000000e+00
1.5917997500e+00 -2.7570780430e+00 0.0000000000e+00
     1      1      4
 1  1  1     7.7212556229e-10
 1  1  2     2.3326463747e+00
 1  1  3    -7.6083999529e-01
 1  2  1     9.6248759434e-01
 1  2  2    -1.0346529638e-10
 1  2  3    -2.4808796874e-09
 1  3  1    -1.3032549666e-01
 1  3  2    -2.5901525732e-09
 1  3  3     2.2639291514e-09
 2  1  1     9.6248759434e-01
 2  1  2    -1.0346535047e-10
 2  1  3    -2.4808798427e-09
 2  2  1    -1.0346526924e-10
 2  2  2    -5.7052288107e-01
 2  2  3    -1.3679955569e+01
 2  3  1    -2.5901527433e-09
 2  3  2    -1.4282502966e+01
 2  3  3     1.2483656788e+01
 3  1  1    -1.3032549666e-01
 3  1  2    -2.5901525732e-09
 3  1  3     2.2639297515e-09
 3  2  1    -2.5901527433e-09
 3  2  2    -1.4282502966e+01
 3  2  3     1.2483656788e+01
 3  3  1     2.2030783876e-09
 3  3  2     1.2148113011e+01
 3  3  3    -1.0996879975e+01

   12
0.0000000000e+00 0.0000000000e+00 0.0000000000e+00
1.5917997500e+00 -2.7570780430e+00 0.0000000000e+00
     1      1      6
 1  1  1     7.7212556229e-10
 1  1  2     2.3326463747e+00
 1  1  3     7.6083999529e-01
 1  2  1     9.6248759434e-01
 1  2  2    -1.0346529638e-10
 1  2  3     2.4808796874e-09
 1  3  1     1.3032549666e-01
 1  3  2     2.5901525732e-09
 1  3  3     2.2639291514e-09
 2  1  1     9.6248759434e-01
 2  1  2    -1.0346535047e-10
 2  1  3     2.4808798427e-09
 2  2  1    -1.0346526924e-10
 2  2  2    -5.7052288107e-01
 2  2  3     1.3679955569e+01
 2  3  1     2.5901527433e-09
 2  3  2     1.4282502966e+01
 2  3  3     1.2483656788e+01
 3  1  1     1.3032549666e-01
 3  1  2     2.5901525732e-09
 3  1  3     2.2639297515e-09
 3  2  1     2.5901527433e-09
 3  2  2     1.4282502966e+01
 3  2  3     1.2483656788e+01
 3  3  1     2.2030783876e-09
 3  3  2     1.2148113011e+01
 3  3  3     1.0996879975e+01

   13
0.0000000000e+00 0.0000000000e+00 0.0000000000e+00
1.5917997510e+00 2.7570780430e+00 0.0000000000e+00
     1      1      1
 1  1  1    -1.2004582511e+00
 1  1  2     2.2232550703e+00
 1  1  3     0.0000000000e+00
 1  2  1    -4.3913434257e+00
 1  2  2     3.4187874713e+00
 1  2  3     0.0000000000e+00
 1  3  1     0.0000000000e+00
 1  3  2     0.0000000000e+00
 1  3  3     4.1589336277e+00
 2  1  1    -4.3913434257e+00
 2  1  2     3.4187874713e+00
 2  1  3     0.0000000000e+00
 2  2  1    -8.0380331904e+00
 2  2  2     3.1105904510e+00
 2  2  3     0.0000000000e+00
 2  3  1     0.0000000000e+00
 2  3  2     0.0000000000e+00
 2  3  3    -2.4011614495e+00
 3  1  1     0.0000000000e+00
 3  1  2     0.0000000000e+00
 3  1  3     4.1589336277e+00
 3  2  1     0.0000000000e+00
 3  2  2     0.0000000000e+00
 3  2  3    -2.4011614495e+00
 3  3  1     8.6073754488e-01
 3  3  2    -4.9694705323e-01
 3  3  3     0.0000000000e+00

   14
0.0000000000e+00 0.0000000000e+00 0.0000000000e+00
1.5917997510e+00 2.7570780430e+00 0.0000000000e+00
     1      1      3
 1  1  1     5.7565032604e-04
 1  1  2     3.6097377139e-03
 1  1  3     5.7057698506e-03
 1  2  1     6.1105616701e-04
 1  2  2     1.9231730388e-03
 1  2  3    -2.2370865237e-03
 1  3  1     1.5803577415e-03
 1  3  2     1.8843775813e-04
 1  3  3     5.7752510817e-04
 2  1  1     6.1105616701e-04
 2  1  2     1.9231730388e-03
 2  1  3    -2.2370865237e-03
 2  2  1    -3.2706957538e-03
 2  2  2    -2.0537525089e-03
 2  2  3     3.1226048364e-03
 2  3  1     1.8843775813e-04
 2  3  2     1.7979469213e-03
 2  3  3    -3.3343427666e-04
 3  1  1     1.5803577415e-03
 3  1  2     1.8843775813e-04
 3  1  3     5.7752510817e-04
 3  2  1     1.8843775813e-04
 3  2  2     1.7979469213e-03
 3  2  3    -3.3343427666e-04
 3  3  1    -5.7261677406e-04
 3  3  2     3.3060044864e-04
 3  3  3     9.0611206636e-03

   15
0.0000000000e+00 0.0000000000e+00 0.0000000000e+00
4.7753992510e+00 -2.7570780430e+00 0.0000000000e+00
     1      1      4
 1  1  1     0.0000000000e+00
 1  1  2     0.0000000000e+00
 1  1  3    -1.3396218073e+00
 1  2  1     0.0000000000e+00
 1  2  2     0.0000000000e+00
 1  2  3    -2.4294230364e-10
 1  3  1     7.3871051912e-01
 1  3  2     1.3396619423e-10
 1  3  3     0.0000000000e+00
 2  1  1     0.0000000000e+00
 2  1  2     0.0000000000e+00
 2  1  3    -2.4294230364e-10
 2  2  1     0.0000000000e+00
 2  2  2     0.0000000000e+00
 2  2  3    -1.3396218070e+00
 2  3  1     1.3396619423e-10
 2  3  2     7.3871051893e-01
 2  3  3     0.0000000000e+00
 3  1  1     7.3871051912e-01
 3  1  2     1.3396619423e-10
 3  1  3     0.0000000000e+00
 3  2  1     1.3396619423e-10
 3  2  2     7.3871051893e-01
 3  2  3     0.0000000000e+00
 3  3  1     0.0000000000e+00
 3  3  2     0.0000000000e+00
 3  3  3    -7.6494447185e-02

   16
0.0000000000e+00 0.0000000000e+00 0.0000000000e+00
4.7753992510e+00 -2.7570780430e+00 0.0000000000e+00
     1      1      6
 1  1  1     0.0000000000e+00
 1  1  2     0.0000000000e+00
 1  1  3     1.3396218073e+00
 1  2  1     0.0000000000e+00
 1  2  2     0.0000000000e+00
 1  2  3     2.4294226118e-10
 1  3  1    -7.3871051912e-01
 1  3  2    -1.3396617082e-10
 1  3  3     0.0000000000e+00
 2  1  1     0.0000000000e+00
 2  1  2     0.0000000000e+00
 2  1  3     2.4294226118e-10
 2  2  1     0.0000000000e+00
 2  2  2     0.0000000000e+00
 2  2  3     1.3396218070e+00
 2  3  1    -1.3396617082e-10
 2  3  2    -7.3871051893e-01
 2  3  3     0.0000000000e+00
 3  1  1    -7.3871051912e-01
 3  1  2    -1.3396617082e-10
 3  1  3     0.0000000000e+00
 3  2  1    -1.3396617082e-10
 3  2  2    -7.3871051893e-01
 3  2  3     0.0000000000e+00
 3  3  1     0.0000000000e+00
 3  3  2     0.0000000000e+00
 3  3  3     7.6494447185e-02

   17
0.0000000000e+00 0.0000000000e+00 0.0000000000e+00
0.0000000000e+00 0.0000000000e+00 -1.4666092767e+01
     1      1      5
 1  1  1     0.0000000000e+00
 1  1  2     0.0000000000e+00
 1  1  3     0.0000000000e+00
 1  2  1     0.0000000000e+00
 1  2  2     0.0000000000e+00
 1  2  3     0.0000000000e+00
 1  3  1     3.9497480165e-03
 1  3  2     7.1629224679e-13
 1  3  3     0.0000000000e+00
 2  1  1     0.0000000000e+00
 2  1  2     0.0000000000e+00
 2  1  3     0.0000000000e+00
 2  2  1     0.0000000000e+00
 2  2  2     0.0000000000e+00
 2  2  3     0.0000000000e+00
 2  3  1     7.1629224679e-13
 2  3  2     3.9497480155e-03
 2  3  3     0.0000000000e+00
 3  1  1     3.9497480165e-03
 3  1  2     7.1629224679e-13
 3  1  3     0.0000000000e+00
 3  2  1     7.1629224679e-13
 3  2  2     3.9497480155e-03
 3  2  3     0.0000000000e+00
 3  3  1     0.0000000000e+00
 3  3  2     0.0000000000e+00
 3  3  3     1.8515787367e-03

   18
0.0000000000e+00 0.0000000000e+00 0.0000000000e+00
-3.1835995010e+00 0.0000000000e+00 -1.4666092767e+01
     1      1      5
 1  1  1     1.0570802602e-12
 1  1  2    -2.0552735085e-03
 1  1  3    -1.8310223300e-03
 1  2  1     3.9420895833e-03
 1  2  2    -1.9163347258e-13
 1  2  3    -1.2689797166e-12
 1  3  1    -1.9067415120e-03
 1  3  2    -2.6687005239e-13
 1  3  3     1.2093755247e-13
 2  1  1     3.9420895833e-03
 2  1  2    -1.9163347258e-13
 2  1  3    -1.2689797166e-12
 2  2  1    -1.9163347258e-13
 2  2  2    -1.0566968987e-03
 2  2  3    -6.9973523568e-03
 2  3  1    -2.6687005239e-13
 2  3  2    -1.4715631508e-03
 2  3  3     6.6686855331e-04
 3  1  1    -1.9067415120e-03
 3  1  2    -2.6687005239e-13
 3  1  3     1.2093755247e-13
 3  2  1    -2.6687005239e-13
 3  2  2    -1.4715631508e-03
 3  2  3     6.6686855331e-04
 3  3  1    -1.1990971505e-13
 3  3  2    -6.6120089727e-04
 3  3  3    -9.0611206636e-03

   19
0.0000000000e+00 0.0000000000e+00 0.0000000000e+00
-1.5917997500e+00 2.7570780430e+00 -1.4666092767e+01
     1      1      5
 1  1  1    -5.7565032429e-04
 1  1  2     3.6097377125e-03
 1  1  3    -5.7057698522e-03
 1  2  1     6.1105616750e-04
 1  2  2    -1.9231730396e-03
 1  2  3    -2.2370865248e-03
 1  3  1    -1.5803577413e-03
 1  3  2     1.8843775747e-04
 1  3  3    -5.7752510829e-04
 2  1  1     6.1105616750e-04
 2  1  2    -1.9231730396e-03
 2  1  3    -2.2370865248e-03
 2  2  1     3.2706957530e-03
 2  2  2    -2.0537525089e-03
 2  2  3    -3.1226048364e-03
 2  3  1     1.8843775747e-04
 2  3  2    -1.7979469213e-03
 2  3  3    -3.3343427666e-04
 3  1  1    -1.5803577413e-03
 3  1  2     1.8843775747e-04
 3  1  3    -5.7752510829e-04
 3  2  1     1.8843775747e-04
 3  2  2    -1.7979469213e-03
 3  2  3    -3.3343427666e-04
 3  3  1     5.7261677418e-04
 3  3  2     3.3060044864e-04
 3  3  3    -9.0611206636e-03

   20
0.0000000000e+00 0.0000000000e+00 0.0000000000e+00
-1.5917997510e+00 -2.7570780430e+00 -1.4666092767e+01
     1      1      5
 1  1  1     5.7565032604e-04
 1  1  2     3.6097377139e-03
 1  1  3    -5.7057698506e-03
 1  2  1     6.1105616701e-04
 1  2  2     1.9231730388e-03
 1  2  3     2.2370865237e-03
 1  3  1    -1.5803577415e-03
 1  3  2    -1.8843775813e-04
 1  3  3     5.7752510817e-04
 2  1  1     6.1105616701e-04
 2  1  2     1.9231730388e-03
 2  1  3     2.2370865237e-03
 2  2  1    -3.2706957538e-03
 2  2  2    -2.0537525089e-03
 2  2  3    -3.1226048364e-03
 2  3  1    -1.8843775813e-04
 2  3  2    -1.7979469213e-03
 2  3  3    -3.3343427666e-04
 3  1  1    -1.5803577415e-03
 3  1  2    -1.8843775813e-04
 3  1  3     5.7752510817e-04
 3  2  1    -1.8843775813e-04
 3  2  2    -1.7979469213e-03
 3  2  3    -3.3343427666e-04
 3  3  1    -5.7261677406e-04
 3  3  2     3.3060044864e-04
 3  3  3    -9.0611206636e-03

   21
0.0000000000e+00 0.0000000000e+00 0.0000000000e+00
0.0000000000e+00 0.0000000000e+00 0.0000000000e+00
     1      3      1
 1  1  1     0.0000000000e+00
 1  1  2     0.0000000000e+00
 1  1  3    -3.9497480165e-03
 1  2  1     0.0000000000e+00
 1  2  2     0.0000000000e+00
 1  2  3    -7.1629237198e-13
 1  3  1     0.0000000000e+00
 1  3  2     0.0000000000e+00
 1  3  3     0.0000000000e+00
 2  1  1     0.0000000000e+00
 2  1  2     0.0000000000e+00
 2  1  3    -7.1629237198e-13
 2  2  1     0.0000000000e+00
 2  2  2     0.0000000000e+00
 2  2  3    -3.9497480155e-03
 2  3  1     0.0000000000e+00
 2  3  2     0.0000000000e+00
 2  3  3     0.0000000000e+00
 3  1  1    -3.9497480165e-03
 3  1  2    -7.1629237198e-13
 3  1  3     0.0000000000e+00
 3  2  1    -7.1629237198e-13
 3  2  2    -3.9497480155e-03
 3  2  3     0.0000000000e+00
 3  3  1     0.0000000000e+00
 3  3  2     0.0000000000e+00
 3  3  3    -1.8515787367e-03

   22
0.0000000000e+00 0.0000000000e+00 0.0000000000e+00
0.0000000000e+00 0.0000000000e+00 0.0000000000e+00
     1      3      3
 1  1  1     0.0000000000e+00
 1  1  2     0.0000000000e+00
 1  1  3     0.0000000000e+00
 1  2  1     0.0000000000e+00
 1  2  2     0.0000000000e+00
 1  2  3     0.0000000000e+00
 1  3  1     0.0000000000e+00
 1  3  2     0.0000000000e+00
 1  3  3     0.0000000000e+00
 2  1  1     0.0000000000e+00
 2  1  2     0.0000000000e+00
 2  1  3     0.0000000000e+00
 2  2  1     0.0000000000e+00
 2  2  2     0.0000000000e+00
 2  2  3     0.0000000000e+00
 2  3  1     0.0000000000e+00
 2  3  2     0.0000000000e+00
 2  3  3     0.0000000000e+00
 3  1  1    -5.3393977504e-03
 3  1  2    -9.6830731065e-13
 3  1  3     0.0000000000e+00
 3  2  1    -9.6830731065e-13
 3  2  2    -5.3393977491e-03
 3  2  3     0.0000000000e+00
 3  3  1     0.0000000000e+00
 3  3  2     0.0000000000e+00
 3  3  3     2.2476880031e-02

   23
0.0000000000e+00 0.0000000000e+00 0.0000000000e+00
0.0000000000e+00 0.0000000000e+00 0.0000000000e+00
     1      3      4
 1  1  1     2.4186307836e-03
 1  1  2    -1.4822927390e-03
 1  1  3    -1.8872294871e-03
 1  2  1    -1.4750169657e-03
 1  2  2    -2.2786414800e-03
 1  2  3     9.5598621576e-04
 1  3  1     3.0869035240e-03
 1  3  2    -4.2722013475e-03
 1  3  3     0.0000000000e+00
 2  1  1     1.1929051233e-03
 2  1  2     2.3423351268e-03
 2  1  3     9.5598621576e-04
 2  2  1     2.3549371358e-03
 2  2  2    -1.2737279842e-03
 2  2  3    -7.8335168894e-04
 2  3  1    -4.2722013475e-03
 2  3  2    -1.8462096702e-03
 2  3  3     0.0000000000e+00
 3  1  1    -2.9260538151e-03
 3  1  2     3.0461602315e-03
 3  1  3     3.3401131748e-03
 3  2  1     3.0461602315e-03
 3  2  2     5.9134904329e-04
 3  2  3    -1.9284152406e-03
 3  3  1    -1.1133373413e-03
 3  3  2     6.4278561370e-04
 3  3  3    -3.5048942096e-03

   24
0.0000000000e+00 0.0000000000e+00 0.0000000000e+00
-3.1835995010e+00 0.0000000000e+00 0.0000000000e+00
     1      3      1
 1  1  1    -4.5069077610e-13
 1  1  2     1.1391892123e-03
 1  1  3     1.5171685065e-03
 1  2  1    -1.3185736555e-03
 1  2  2     0.0000000000e+00
 1  2  3     4.5737285895e-13
 1  3  1    -1.3109840380e-03
 1  3  2     2.3053510490e-13
 1  3  3     2.5076796215e-12
 2  1  1    -2.3057948888e-03
 2  1  2     0.0000000000e+00
 2  1  3     4.5737285895e-13
 2  2  1     0.0000000000e+00
 2  2  2     0.0000000000e+00
 2  2  3     2.5220253805e-03
 2  3  1     2.3053510490e-13
 2  3  2     1.2712065753e-03
 2  3  3     1.3827737103e-02
 3  1  1     5.6912972415e-04
 3  1  2     5.1765105725e-13
 3  1  3     9.1766949430e-13
 3  2  1     5.1765105725e-13
 3  2  2     2.8544087807e-03
 3  2  3     5.0601729207e-03
 3  3  1     2.4205107347e-12
 3  3  2     1.3347074246e-02
 3  3  3    -3.9217531463e-03

   25
0.0000000000e+00 0.0000000000e+00 0.0000000000e+00
-3.1835995010e+00 0.0000000000e+00 0.0000000000e+00
     1      3      3
 1  1  1     3.1262732482e-13
 1  1  2     0.0000000000e+00
 1  1  3     0.0000000000e+00
 1  2  1     1.1176175954e-03
 1  2  2    -1.6271384187e-13
 1  2  3    -4.0268102197e-23
 1  3  1     5.9929613511e-04
 1  3  2    -3.1459454843e-25
 1  3  3    -1.1557535498e-13
 2  1  1     6.0625830235e-04
 2  1  2    -1.6271384187e-13
 2  1  3    -4.0268102197e-23
 2  2  1    -1.6271384187e-13
 2  2  2    -8.9722953807e-04
 2  2  3    -2.2204460492e-13
 2  3  1    -3.1459454843e-25
 2  3  2    -1.7347234760e-15
 2  3  3    -6.3730055886e-04
 3  1  1     3.2983988475e-03
 3  1  2     4.0063823026e-13
 3  1  3    -2.1963967639e-13
 3  2  1     4.0063823026e-13
 3  2  2     2.2091817766e-03
 3  2  3    -1.2111274807e-03
 3  3  1     1.1322682741e-13
 3  3  2     6.2435041101e-04
 3  3  3     6.6577679294e-04

   26
0.0000000000e+00 0.0000000000e+00 0.0000000000e+00
3.1835995010e+00 0.0000000000e+00 0.0000000000e+00
     1      3      4
 1  1  1    -2.4186307842e-03
 1  1  2    -1.4822927390e-03
 1  1  3    -1.8872294878e-03
 1  2  1    -1.4750169657e-03
 1  2  2     2.2786414795e-03
 1  2  3    -9.5598621604e-04
 1  3  1     3.0869035271e-03
 1  3  2     4.2722013468e-03
 1  3  3     0.0000000000e+00
 2  1  1     1.1929051216e-03
 2  1  2    -2.3423351273e-03
 2  1  3    -9.5598621604e-04
 2  2  1    -2.3549371363e-03
 2  2  2    -1.2737279842e-03
 2  2  3    -7.8335168894e-04
 2  3  1     4.2722013468e-03
 2  3  2    -1.8462096702e-03
 2  3  3     0.0000000000e+00
 3  1  1    -2.9260538173e-03
 3  1  2    -3.0461602313e-03
 3  1  3    -3.3401131755e-03
 3  2  1    -3.0461602313e-03
 3  2  2     5.9134904329e-04
 3  2  3    -1.9284152406e-03
 3  3  1     1.1133373416e-03
 3  3  2     6.4278561370e-04
 3  3  3    -3.5048942096e-03

   27
0.0000000000e+00 0.0000000000e+00 0.0000000000e+00
-1.5917997500e+00 2.7570780430e+00 0.0000000000e+00
     1      3      1
 1  1  1     5.3805710841e-04
 1  1  2    -1.5015368553e-03
 1  1  3     2.2708111626e-03
 1  2  1    -2.7265542177e-04
 1  2  2     1.4588198410e-03
 1  2  3     4.3511579054e-04
 1  3  1     6.2565892261e-04
 1  3  2     1.1181213342e-03
 1  3  3    -1.1975171611e-02
 2  1  1     2.2095519474e-04
 2  1  2     6.0386117390e-04
 2  1  3     4.3511579054e-04
 2  2  1    -1.5246239058e-03
 2  2  2     9.3194224928e-04
 2  2  3     1.7683827248e-03
 2  3  1     1.1181213342e-03
 2  3  2    -6.6543638445e-04
 2  3  3    -6.9138685514e-03
 3  1  1     2.2830890174e-03
 3  1  2     9.8955485922e-04
 3  1  3    -4.3822382979e-03
 3  2  1     9.8955485922e-04
 3  2  2     1.1404494882e-03
 3  2  3    -2.5300864603e-03
 3  3  1    -1.1558905366e-02
 3  3  2    -6.6735371232e-03
 3  3  3    -3.9217531463e-03

   28
0.0000000000e+00 0.0000000000e+00 0.0000000000e+00
-1.5917997500e+00 2.7570780430e+00 0.0000000000e+00
     1      3      3
 1  1  1     2.0953760019e-04
 1  1  2     9.8291453844e-04
 1  1  3    -1.6653345376e-13
 1  2  1     4.2410574093e-04
 1  2  2     4.2450882203e-05
 1  2  3    -9.6148134338e-14
 1  3  1     1.4982403368e-04
 1  3  2    -2.5950283858e-04
 1  3  3     5.5191847394e-04
 2  1  1     6.7978538736e-04
 2  1  2    -4.0039925596e-04
 2  1  3    -9.6148134338e-14
 2  2  1     5.6748597323e-04
 2  2  2    -5.3429976923e-04
 2  2  3    -5.5511151230e-14
 2  3  1    -2.5950283858e-04
 2  3  2     4.4947210122e-04
 2  3  3     3.1865027943e-04
 3  1  1     2.4814860446e-03
 3  1  2    -4.7164482596e-04
 3  1  3     1.0488671658e-03
 3  2  1    -4.7164482596e-04
 3  2  2     3.0260945792e-03
 3  2  3     6.0556374037e-04
 3  3  1    -5.4070331692e-04
 3  3  2    -3.1217520551e-04
 3  3  3     6.6577679294e-04

   29
0.0000000000e+00 0.0000000000e+00 0.0000000000e+00
1.5917997500e+00 -2.7570780430e+00 0.0000000000e+00
     1      3      4
 1  1  1     4.3973892526e-13
 1  1  2     2.5965780297e-03
 1  1  3    -2.3141278997e-04
 1  2  1     2.5820264831e-03
 1  2  2     5.2872332670e-13
 1  2  3    -4.4234670077e-13
 1  3  1    -4.3127662688e-03
 1  3  2     1.0071283271e-12
 1  3  3     0.0000000000e+00
 2  1  1    -2.7538176932e-03
 2  1  2     5.2872360710e-13
 2  1  3    -4.4234672731e-13
 2  2  1     5.2872383875e-13
 2  2  2     2.9154634167e-03
 2  2  3    -2.4391683860e-03
 2  3  1     1.0071284456e-12
 2  3  2     5.5534601223e-03
 2  3  3     0.0000000000e+00
 3  1  1     2.3500504732e-03
 3  1  2    -8.4958730519e-13
 3  1  3     6.9944195205e-13
 3  2  1    -8.4958738973e-13
 3  2  2    -4.6847552448e-03
 3  2  3     3.8568304812e-03
 3  3  1    -2.3314025680e-13
 3  3  2    -1.2855712274e-03
 3  3  3    -3.5048942096e-03

   30
0.0000000000e+00 0.0000000000e+00 0.0000000000e+00
1.5917997510e+00 2.7570780430e+00 0.0000000000e+00
     1      3      1
 1  1  1    -5.3805710897e-04
 1  1  2    -1.5015368560e-03
 1  1  3     2.2708111623e-03
 1  2  1    -2.7265542174e-04
 1  2  2    -1.4588198407e-03
 1  2  3    -4.3511578990e-04
 1  3  1     6.2565892179e-04
 1  3  2    -1.1181213344e-03
 1  3  3     1.1975171608e-02
 2  1  1     2.2095519508e-04
 2  1  2    -6.0386117356e-04
 2  1  3    -4.3511578990e-04
 2  2  1     1.5246239062e-03
 2  2  2     9.3194224928e-04
 2  2  3     1.7683827248e-03
 2  3  1    -1.1181213344e-03
 2  3  2    -6.6543638445e-04
 2  3  3    -6.9138685514e-03
 3  1  1     2.2830890167e-03
 3  1  2    -9.8955485881e-04
 3  1  3     4.3822382969e-03
 3  2  1    -9.8955485881e-04
 3  2  2     1.1404494882e-03
 3  2  3    -2.5300864603e-03
 3  3  1     1.1558905364e-02
 3  3  2    -6.6735371232e-03
 3  3  3    -3.9217531463e-03

   31
0.0000000000e+00 0.0000000000e+00 0.0000000000e+00
1.5917997510e+00 2.7570780430e+00 0.0000000000e+00
     1      3      3
 1  1  1    -2.0953759944e-04
 1  1  2     9.8291453857e-04
 1  1  3    -1.6653345370e-13
 1  2  1     4.2410574071e-04
 1  2  2    -4.2450882397e-05
 1  2  3     9.6148134318e-14
 1  3  1     1.4982403387e-04
 1  3  2     2.5950283875e-04
 1  3  3    -5.5191847383e-04
 2  1  1     6.7978538730e-04
 2  1  2     4.0039925577e-04
 2  1  3     9.6148134318e-14
 2  2  1    -5.6748597343e-04
 2  2  2    -5.3429976923e-04
 2  2  3    -5.5511151230e-14
 2  3  1     2.5950283875e-04
 2  3  2     4.4947210122e-04
 2  3  3     3.1865027943e-04
 3  1  1     2.4814860449e-03
 3  1  2     4.7164482706e-04
 3  1  3    -1.0488671656e-03
 3  2  1     4.7164482706e-04
 3  2  2     3.0260945792e-03
 3  2  3     6.0556374037e-04
 3  3  1     5.4070331681e-04
 3  3  2    -3.1217520551e-04
 3  3  3     6.6577679294e-04

   32
0.0000000000e+00 0.0000000000e+00 0.0000000000e+00
4.7753992510e+00 -2.7570780430e+00 0.0000000000e+00
     1      3      4
 1  1  1     0.0000000000e+00
 1  1  2     0.0000000000e+00
 1  1  3     2.0536374393e-03
 1  2  1     0.0000000000e+00
 1  2  2     0.0000000000e+00
 1  2  3     3.7243004527e-13
 1  3  1    -2.0755230302e-03
 1  3  2    -3.7639902804e-13
 1  3  3     0.0000000000e+00
 2  1  1     0.0000000000e+00
 2  1  2     0.0000000000e+00
 2  1  3     3.7243004527e-13
 2  2  1     0.0000000000e+00
 2  2  2     0.0000000000e+00
 2  2  3     2.0536374388e-03
 2  3  1    -3.7639902804e-13
 2  3  2    -2.0755230297e-03
 2  3  3     0.0000000000e+00
 3  1  1    -6.5991855040e-04
 3  1  2    -1.1967715961e-13
 3  1  3     0.0000000000e+00
 3  2  1    -1.1967715961e-13
 3  2  2    -6.5991855024e-04