 1468

    1
0.0000000000e+00 0.0000000000e+00 0.0000000000e+00
0.0000000000e+00 0.0000000000e+00 0.0000000000e+00
     1      1      1
 1  1  1     0.0000000000e+00
 1  1  2    -1.7252097638e+02
 1  1  3     0.0000000000e+00
 1  2  1    -1.7252097638e+02
 1  2  2     0.0000000000e+00
 1  2  3     0.0000000000e+00
 1  3  1     0.0000000000e+00
 1  3  2     0.0000000000e+00
 1  3  3     0.0000000000e+00
 2  1  1    -1.7252097638e+02
 2  1  2     0.0000000000e+00
 2  1  3     0.0000000000e+00
 2  2  1     0.0000000000e+00
 2  2  2     1.7252097638e+02
 2  2  3     0.0000000000e+00
 2  3  1     0.0000000000e+00
 2  3  2     0.0000000000e+00
 2  3  3     0.0000000000e+00
 3  1  1     0.0000000000e+00
 3  1  2     0.0000000000e+00
 3  1  3     0.0000000000e+00
 3  2  1     0.0000000000e+00
 3  2  2     0.0000000000e+00
 3  2  3     0.0000000000e+00
 3  3  1     0.0000000000e+00
 3  3  2     0.0000000000e+00
 3  3  3     0.0000000000e+00

    2
0.0000000000e+00 0.0000000000e+00 0.0000000000e+00
0.0000000000e+00 0.0000000000e+00 0.0000000000e+00
     1      1      2
 1  1  1     0.0000000000e+00
 1  1  2     1.3498288286e-02
 1  1  3     1.1348385957e-01
 1  2  1     1.3498288286e-02
 1  2  2     0.0000000000e+00
 1  2  3     0.0000000000e+00
 1  3  1     4.7343722946e-02
 1  3  2     0.0000000000e+00
 1  3  3     0.0000000000e+00
 2  1  1     1.3498288286e-02
 2  1  2     0.0000000000e+00
 2  1  3     0.0000000000e+00
 2  2  1     0.0000000000e+00
 2  2  2    -1.3498288286e-02
 2  2  3     1.1348385957e-01
 2  3  1     0.0000000000e+00
 2  3  2     4.7343722946e-02
 2  3  3     0.0000000000e+00
 3  1  1     4.7343722946e-02
 3  1  2     0.0000000000e+00
 3  1  3     0.0000000000e+00
 3  2  1     0.0000000000e+00
 3  2  2     4.7343722946e-02
 3  2  3     0.0000000000e+00
 3  3  1     0.0000000000e+00
 3  3  2     0.0000000000e+00
 3  3  3     3.5995445663e-02

    3
0.0000000000e+00 0.0000000000e+00 0.0000000000e+00
0.0000000000e+00 0.0000000000e+00 0.0000000000e+00
     1      1      3
 1  1  1     0.0000000000e+00
 1  1  2     1.0191765271e+01
 1  1  3     0.0000000000e+00
 1  2  1     1.3248571207e+01
 1  2  2     0.0000000000e+00
 1  2  3     0.0000000000e+00
 1  3  1     0.0000000000e+00
 1  3  2     0.0000000000e+00
 1  3  3     0.0000000000e+00
 2  1  1     1.3248571207e+01
 2  1  2     0.0000000000e+00
 2  1  3     0.0000000000e+00
 2  2  1     0.0000000000e+00
 2  2  2    -1.9571072135e+02
 2  2  3     0.0000000000e+00
 2  3  1     0.0000000000e+00
 2  3  2     0.0000000000e+00
 2  3  3     1.5768629766e+01
 3  1  1     0.0000000000e+00
 3  1  2     0.0000000000e+00
 3  1  3     0.0000000000e+00
 3  2  1     0.0000000000e+00
 3  2  2     0.0000000000e+00
 3  2  3     1.5768629766e+01
 3  3  1     0.0000000000e+00
 3  3  2     1.3359015192e+01
 3  3  3     0.0000000000e+00

    4
0.0000000000e+00 0.0000000000e+00 0.0000000000e+00
0.0000000000e+00 0.0000000000e+00 0.0000000000e+00
     1      1      4
 1  1  1    -2.1666861195e-03
 1  1  2    -6.8584751969e-03
 1  1  3     3.5694432956e-02
 1  2  1    -5.6075383826e-03
 1  2  2     1.0842021725e-16
 1  2  3     2.2417054421e-03
 1  3  1    -3.3469940056e-02
 1  3  2    -1.3888378064e-02
 1  3  3    -3.3964686865e-02
 2  1  1    -5.6075383826e-03
 2  1  2     1.0842021725e-16
 2  1  3     2.2417054421e-03
 2  2  1    -2.1666861195e-03
 2  2  2     4.3566015683e-03
 2  2  3     3.3105934475e-02
 2  3  1    -1.3888378064e-02
 2  3  2    -1.7433022429e-02
 2  3  3    -1.9609521104e-02
 3  1  1    -3.3469940056e-02
 3  1  2    -1.3888378064e-02
 3  1  3    -3.3964686865e-02
 3  2  1    -1.3888378064e-02
 3  2  2    -1.7433022429e-02
 3  2  3    -1.9609521104e-02
 3  3  1    -1.5200966606e-01
 3  3  2    -8.7762821622e-02
 3  3  3    -1.2538797521e-01

    5
0.0000000000e+00 0.0000000000e+00 0.0000000000e+00
2.4510625057e+00 0.0000000000e+00 0.0000000000e+00
     1      1      1
 1  1  1    -1.0645653055e+01
 1  1  2    -8.0905572624e-01
 1  1  3     0.0000000000e+00
 1  2  1     1.5834224606e+00
 1  2  2     2.2660826613e+00
 1  2  3     0.0000000000e+00
 1  3  1     0.0000000000e+00
 1  3  2     0.0000000000e+00
 1  3  3     2.3249339275e+00
 2  1  1     1.5834224606e+00
 2  1  2     2.2660826613e+00
 2  1  3     0.0000000000e+00
 2  2  1     2.4139017847e+00
 2  2  2     1.2512179851e+00
 2  2  3     0.0000000000e+00
 2  3  1     0.0000000000e+00
 2  3  2     0.0000000000e+00
 2  3  3     9.3617009756e-01
 3  1  1     0.0000000000e+00
 3  1  2     0.0000000000e+00
 3  1  3     2.3249339275e+00
 3  2  1     0.0000000000e+00
 3  2  2     0.0000000000e+00
 3  2  3     9.3617009756e-01
 3  3  1    -4.1945882677e-01
 3  3  2     5.6790409185e-01
 3  3  3     0.0000000000e+00

    6
0.0000000000e+00 0.0000000000e+00 0.0000000000e+00
2.4510625057e+00 0.0000000000e+00 0.0000000000e+00
     1      1      3
 1  1  1    -1.8307901882e+00
 1  1  2     1.1392120212e+00
 1  1  3     0.0000000000e+00
 1  2  1    -5.9415690545e-01
 1  2  2    -1.6110244125e+00
 1  2  3     0.0000000000e+00
 1  3  1     0.0000000000e+00
 1  3  2     0.0000000000e+00
 1  3  3     4.3763575856e-02
 2  1  1    -5.9415690545e-01
 2  1  2    -1.6110244125e+00
 2  1  3     0.0000000000e+00
 2  2  1     1.3912586368e+00
 2  2  2    -1.3929756808e+00
 2  2  3     0.0000000000e+00
 2  3  1     0.0000000000e+00
 2  3  2     0.0000000000e+00
 2  3  3     2.5266912301e-02
 3  1  1     0.0000000000e+00
 3  1  2     0.0000000000e+00
 3  1  3     4.3763575856e-02
 3  2  1     0.0000000000e+00
 3  2  2     0.0000000000e+00
 3  2  3     2.5266912301e-02
 3  3  1    -9.0760328805e-02
 3  3  2    -5.2400500267e-02
 3  3  3     0.0000000000e+00

    7
0.0000000000e+00 0.0000000000e+00 0.0000000000e+00
-2.4510625057e+00 0.0000000000e+00 0.0000000000e+00
     1      1      1
 1  1  1     1.0645653055e+01
 1  1  2    -8.0905572624e-01
 1  1  3     0.0000000000e+00
 1  2  1     1.5834224606e+00
 1  2  2    -2.2660826613e+00
 1  2  3     0.0000000000e+00
 1  3  1     0.0000000000e+00
 1  3  2     0.0000000000e+00
 1  3  3    -2.3249339275e+00
 2  1  1     1.5834224606e+00
 2  1  2    -2.2660826613e+00
 2  1  3     0.0000000000e+00
 2  2  1    -2.4139017847e+00
 2  2  2     1.2512179851e+00
 2  2  3     0.0000000000e+00
 2  3  1     0.0000000000e+00
 2  3  2     0.0000000000e+00
 2  3  3     9.3617009756e-01
 3  1  1     0.0000000000e+00
 3  1  2     0.0000000000e+00
 3  1  3    -2.3249339275e+00
 3  2  1     0.0000000000e+00
 3  2  2     0.0000000000e+00
 3  2  3     9.3617009756e-01
 3  3  1     4.1945882677e-01
 3  3  2     5.6790409185e-01
 3  3  3     0.0000000000e+00

    8
0.0000000000e+00 0.0000000000e+00 0.0000000000e+00
-2.4510625057e+00 0.0000000000e+00 0.0000000000e+00
     1      1      3
 1  1  1     1.8307901882e+00
 1  1  2     1.1392120212e+00
 1  1  3     0.0000000000e+00
 1  2  1    -5.9415690545e-01
 1  2  2     1.6110244125e+00
 1  2  3     0.0000000000e+00
 1  3  1     0.0000000000e+00
 1  3  2     0.0000000000e+00
 1  3  3    -4.3763575856e-02
 2  1  1    -5.9415690545e-01
 2  1  2     1.6110244125e+00
 2  1  3     0.0000000000e+00
 2  2  1    -1.3912586368e+00
 2  2  2    -1.3929756808e+00
 2  2  3     0.0000000000e+00
 2  3  1     0.0000000000e+00
 2  3  2     0.0000000000e+00
 2  3  3     2.5266912301e-02
 3  1  1     0.0000000000e+00
 3  1  2     0.0000000000e+00
 3  1  3    -4.3763575856e-02
 3  2  1     0.0000000000e+00
 3  2  2     0.0000000000e+00
 3  2  3     2.5266912301e-02
 3  3  1     9.0760328805e-02
 3  3  2    -5.2400500267e-02
 3  3  3     0.0000000000e+00

    9
0.0000000000e+00 0.0000000000e+00 0.0000000000e+00
-2.4510625057e+00 0.0000000000e+00 0.0000000000e+00
     1      1      4
 1  1  1     2.1666861195e-03
 1  1  2    -6.8584751969e-03
 1  1  3     3.5694432956e-02
 1  2  1    -5.6075383826e-03
 1  2  2    -1.0842021725e-16
 1  2  3    -2.2417054421e-03
 1  3  1    -3.3469940056e-02
 1  3  2     1.3888378064e-02
 1  3  3     3.3964686865e-02
 2  1  1    -5.6075383826e-03
 2  1  2    -1.0842021725e-16
 2  1  3    -2.2417054421e-03
 2  2  1     2.1666861195e-03
 2  2  2     4.3566015683e-03
 2  2  3     3.3105934475e-02
 2  3  1     1.3888378064e-02
 2  3  2    -1.7433022429e-02
 2  3  3    -1.9609521104e-02
 3  1  1    -3.3469940056e-02
 3  1  2     1.3888378064e-02
 3  1  3     3.3964686865e-02
 3  2  1     1.3888378064e-02
 3  2  2    -1.7433022429e-02
 3  2  3    -1.9609521104e-02
 3  3  1     1.5200966606e-01
 3  3  2    -8.7762821622e-02
 3  3  3    -1.2538797521e-01

   10
0.0000000000e+00 0.0000000000e+00 0.0000000000e+00
-1.2255312528e+00 2.1226823962e+00 0.0000000000e+00
     1      1      1
 1  1  1    -2.5972347888e+00
 1  1  2    -8.9872680460e-01
 1  1  3     0.0000000000e+00
 1  2  1    -2.2229810141e+00
 1  2  2     4.3321493491e+00
 1  2  3     0.0000000000e+00
 1  3  1     0.0000000000e+00
 1  3  2     0.0000000000e+00
 1  3  3    -1.9732140505e+00
 2  1  1    -2.2229810141e+00
 2  1  2     4.3321493491e+00
 2  1  3     0.0000000000e+00
 2  2  1     6.3301866752e+00
 2  2  2    -6.4512600425e+00
 2  2  3     0.0000000000e+00
 2  3  1     0.0000000000e+00
 2  3  2     0.0000000000e+00
 2  3  3     1.5453667945e+00
 3  1  1     0.0000000000e+00
 3  1  2     0.0000000000e+00
 3  1  3    -1.9732140505e+00
 3  2  1     0.0000000000e+00
 3  2  2     0.0000000000e+00
 3  2  3     1.5453667945e+00
 3  3  1    -2.8208995707e-01
 3  3  2    -6.4721404575e-01
 3  3  3     0.0000000000e+00

   11
0.0000000000e+00 0.0000000000e+00 0.0000000000e+00
-1.2255312528e+00 2.1226823962e+00 0.0000000000e+00
     1      1      3
 1  1  1     1.2033128865e-01
 1  1  2    -8.0379412349e-01
 1  1  3     0.0000000000e+00
 1  2  1    -4.9501955546e-01
 1  2  2     6.4323654480e-02
 1  2  3     0.0000000000e+00
 1  3  1     0.0000000000e+00
 1  3  2     0.0000000000e+00
 1  3  3    -1.4223073527e-01
 2  1  1    -4.9501955546e-01
 2  1  2     6.4323654480e-02
 2  1  3     0.0000000000e+00
 2  2  1     4.7974419992e-01
 2  2  2     1.1660727785e+00
 2  2  3     0.0000000000e+00
 2  3  1     0.0000000000e+00
 2  3  2     0.0000000000e+00
 2  3  3    -1.0546156419e-01
 3  1  1     0.0000000000e+00
 3  1  2     0.0000000000e+00
 3  1  3    -1.4223073527e-01
 3  2  1     0.0000000000e+00
 3  2  2     0.0000000000e+00
 3  2  3    -1.0546156419e-01
 3  3  1     1.5178984956e-01
 3  3  2    -1.6985634517e-01
 3  3  3     0.0000000000e+00

   12
0.0000000000e+00 0.0000000000e+00 0.0000000000e+00
1.2255312528e+00 2.1226823962e+00 0.0000000000e+00
     1      1      1
 1  1  1     2.5972347888e+00
 1  1  2    -8.9872680460e-01
 1  1  3     0.0000000000e+00
 1  2  1    -2.2229810141e+00
 1  2  2    -4.3321493491e+00
 1  2  3     0.0000000000e+00
 1  3  1     0.0000000000e+00
 1  3  2     0.0000000000e+00
 1  3  3     1.9732140505e+00
 2  1  1    -2.2229810141e+00
 2  1  2    -4.3321493491e+00
 2  1  3     0.0000000000e+00
 2  2  1    -6.3301866752e+00
 2  2  2    -6.4512600425e+00
 2  2  3     0.0000000000e+00
 2  3  1     0.0000000000e+00
 2  3  2     0.0000000000e+00
 2  3  3     1.5453667945e+00
 3  1  1     0.0000000000e+00
 3  1  2     0.0000000000e+00
 3  1  3     1.9732140505e+00
 3  2  1     0.0000000000e+00
 3  2  2     0.0000000000e+00
 3  2  3     1.5453667945e+00
 3  3  1     2.8208995707e-01
 3  3  2    -6.4721404575e-01
 3  3  3     0.0000000000e+00

   13
0.0000000000e+00 0.0000000000e+00 0.0000000000e+00
1.2255312528e+00 2.1226823962e+00 0.0000000000e+00
     1      1      3
 1  1  1    -1.2033128865e-01
 1  1  2    -8.0379412349e-01
 1  1  3     0.0000000000e+00
 1  2  1    -4.9501955546e-01
 1  2  2    -6.4323654480e-02
 1  2  3     0.0000000000e+00
 1  3  1     0.0000000000e+00
 1  3  2     0.0000000000e+00
 1  3  3     1.4223073527e-01
 2  1  1    -4.9501955546e-01
 2  1  2    -6.4323654480e-02
 2  1  3     0.0000000000e+00
 2  2  1    -4.7974419992e-01
 2  2  2     1.1660727785e+00
 2  2  3     0.0000000000e+00
 2  3  1     0.0000000000e+00
 2  3  2     0.0000000000e+00
 2  3  3    -1.0546156419e-01
 3  1  1     0.0000000000e+00
 3  1  2     0.0000000000e+00
 3  1  3     1.4223073527e-01
 3  2  1     0.0000000000e+00
 3  2  2     0.0000000000e+00
 3  2  3    -1.0546156419e-01
 3  3  1    -1.5178984956e-01
 3  3  2    -1.6985634517e-01
 3  3  3     0.0000000000e+00

   14
0.0000000000e+00 0.0000000000e+00 0.0000000000e+00
2.4510625057e+00 -4.2453647923e+00 0.0000000000e+00
     1      1      3
 1  1  1     6.1219842578e-01
 1  1  2    -3.9826516599e-01
 1  1  3     0.0000000000e+00
 1  2  1    -9.1241719561e-01
 1  2  2     6.1278184265e-02
 1  2  3     0.0000000000e+00
 1  3  1     0.0000000000e+00
 1  3  2     0.0000000000e+00
 1  3  3    -1.6244776134e-01
 2  1  1    -9.1241719561e-01
 2  1  2     6.1278184265e-02
 2  1  3     0.0000000000e+00
 2  2  1     1.5818370287e-03
 2  2  2     7.3680645576e-01
 2  2  3     0.0000000000e+00
 2  3  1     0.0000000000e+00
 2  3  2     0.0000000000e+00
 2  3  3    -7.0444647848e-02
 3  1  1     0.0000000000e+00
 3  1  2     0.0000000000e+00
 3  1  3    -1.6244776134e-01
 3  2  1     0.0000000000e+00
 3  2  2     0.0000000000e+00
 3  2  3    -7.0444647848e-02
 3  3  1    -7.1204985131e-02
 3  3  2     2.1638203834e-01
 3  3  3     0.0000000000e+00

   15
0.0000000000e+00 0.0000000000e+00 0.0000000000e+00
-2.4510625057e+00 -4.2453647923e+00 0.0000000000e+00
     1      1      3
 1  1  1    -6.1219842578e-01
 1  1  2    -3.9826516599e-01
 1  1  3     0.0000000000e+00
 1  2  1    -9.1241719561e-01
 1  2  2    -6.1278184265e-02
 1  2  3     0.0000000000e+00
 1  3  1     0.0000000000e+00
 1  3  2     0.0000000000e+00
 1  3  3     1.6244776134e-01
 2  1  1    -9.1241719561e-01
 2  1  2    -6.1278184265e-02
 2  1  3     0.0000000000e+00
 2  2  1    -1.5818370287e-03
 2  2  2     7.3680645576e-01
 2  2  3     0.0000000000e+00
 2  3  1     0.0000000000e+00
 2  3  2     0.0000000000e+00
 2  3  3    -7.0444647848e-02
 3  1  1     0.0000000000e+00
 3  1  2     0.0000000000e+00
 3  1  3     1.6244776134e-01
 3  2  1     0.0000000000e+00
 3  2  2     0.0000000000e+00
 3  2  3    -7.0444647848e-02
 3  3  1     7.1204985131e-02
 3  3  2     2.1638203834e-01
 3  3  3     0.0000000000e+00

   16
0.0000000000e+00 0.0000000000e+00 0.0000000000e+00
0.0000000000e+00 -4.2453647923e+00 0.0000000000e+00
     1      1      3
 1  1  1     0.0000000000e+00
 1  1  2    -1.2705186241e+00
 1  1  3     0.0000000000e+00
 1  2  1     2.1962192292e+00
 1  2  2     0.0000000000e+00
 1  2  3     0.0000000000e+00
 1  3  1     0.0000000000e+00
 1  3  2     0.0000000000e+00
 1  3  3     0.0000000000e+00
 2  1  1     2.1962192292e+00
 2  1  2     0.0000000000e+00
 2  1  3     0.0000000000e+00
 2  2  1     0.0000000000e+00
 2  2  2     1.7780459432e+00
 2  2  3     0.0000000000e+00
 2  3  1     0.0000000000e+00
 2  3  2     0.0000000000e+00
 2  3  3    -5.0533824603e-02
 3  1  1     0.0000000000e+00
 3  1  2     0.0000000000e+00
 3  1  3     0.0000000000e+00
 3  2  1     0.0000000000e+00
 3  2  2     0.0000000000e+00
 3  2  3    -5.0533824603e-02
 3  3  1     0.0000000000e+00
 3  3  2     1.0480100053e-01
 3  3  3     0.0000000000e+00

   17
0.0000000000e+00 0.0000000000e+00 0.0000000000e+00
1.2255312528e+00 -2.1226823962e+00 0.0000000000e+00
     1      1      1
 1  1  1    -4.9097722115e-02
 1  1  2     2.5377109382e+00
 1  1  3     0.0000000000e+00
 1  2  1     1.4694869609e+00
 1  2  2    -6.5955581113e+00
 1  2  3     0.0000000000e+00
 1  3  1     0.0000000000e+00
 1  3  2     0.0000000000e+00
 1  3  3     3.5171987698e-01
 2  1  1     1.4694869609e+00
 2  1  2    -6.5955581113e+00
 2  1  3     0.0000000000e+00
 2  2  1    -4.4497016618e+00
 2  2  2     4.3701136501e+00
 2  2  3     0.0000000000e+00
 2  3  1     0.0000000000e+00
 2  3  2     0.0000000000e+00
 2  3  3    -2.4815368921e+00
 3  1  1     0.0000000000e+00
 3  1  2     0.0000000000e+00
 3  1  3     3.5171987698e-01
 3  2  1     0.0000000000e+00
 3  2  2     0.0000000000e+00
 3  2  3    -2.4815368921e+00
 3  3  1    -7.0154878384e-01
 3  3  2     7.9309953902e-02
 3  3  3     0.0000000000e+00

   18
0.0000000000e+00 0.0000000000e+00 0.0000000000e+00
1.2255312528e+00 -2.1226823962e+00 0.0000000000e+00
     1      1      3
 1  1  1    -1.1917446084e+02
 1  1  2     8.2053978252e+01
 1  1  3     0.0000000000e+00
 1  2  1     8.0525575284e+01
 1  2  2    -3.8842396414e+01
 1  2  3     0.0000000000e+00
 1  3  1     0.0000000000e+00
 1  3  2     0.0000000000e+00
 1  3  3     1.3656033960e+01
 2  1  1     8.0525575284e+01
 2  1  2    -3.8842396414e+01
 2  1  3     0.0000000000e+00
 2  2  1    -4.1489668009e+01
 2  2  2     1.0705499787e+01
 2  2  3     0.0000000000e+00
 2  3  1     0.0000000000e+00
 2  3  2     0.0000000000e+00
 2  3  3    -7.8843148831e+00
 3  1  1     0.0000000000e+00
 3  1  2     0.0000000000e+00
 3  1  3     1.3656033960e+01
 3  2  1     0.0000000000e+00
 3  2  2     0.0000000000e+00
 3  2  3    -7.8843148831e+00
 3  3  1     1.1569246526e+01
 3  3  2    -6.6795075959e+00
 3  3  3     0.0000000000e+00

   19
0.0000000000e+00 0.0000000000e+00 0.0000000000e+00
3.6765937585e+00 -2.1226823962e+00 0.0000000000e+00
     1      1      3
 1  1  1     1.2582197196e-01
 1  1  2    -1.0178702202e+00
 1  1  3     0.0000000000e+00
 1  2  1    -8.1249275865e-01
 1  2  2     3.6299969495e-01
 1  2  3     0.0000000000e+00
 1  3  1     0.0000000000e+00
 1  3  2     0.0000000000e+00
 1  3  3    -2.0217026074e-02
 2  1  1    -8.1249275865e-01
 2  1  2     3.6299969495e-01
 2  1  3     0.0000000000e+00
 2  2  1    -1.1211719772e-01
 2  2  2     3.1705027542e-01
 2  2  3     0.0000000000e+00
 2  3  1     0.0000000000e+00
 2  3  2     0.0000000000e+00
 2  3  3     1.7590621203e-01
 3  1  1     0.0000000000e+00
 3  1  2     0.0000000000e+00
 3  1  3    -2.0217026074e-02
 3  2  1     0.0000000000e+00
 3  2  2     0.0000000000e+00
 3  2  3     1.7590621203e-01
 3  3  1    -2.2299483469e-01
 3  3  2    -4.6525693172e-02
 3  3  3     0.0000000000e+00

   20
0.0000000000e+00 0.0000000000e+00 0.0000000000e+00
-3.6765937585e+00 -2.1226823962e+00 0.0000000000e+00
     1      1      3
 1  1  1    -1.2582197196e-01
 1  1  2    -1.0178702202e+00
 1  1  3     0.0000000000e+00
 1  2  1    -8.1249275865e-01
 1  2  2    -3.6299969495e-01
 1  2  3     0.0000000000e+00
 1  3  1     0.0000000000e+00
 1  3  2     0.0000000000e+00
 1  3  3     2.0217026074e-02
 2  1  1    -8.1249275865e-01
 2  1  2    -3.6299969495e-01
 2  1  3     0.0000000000e+00
 2  2  1     1.1211719772e-01
 2  2  2     3.1705027542e-01
 2  2  3     0.0000000000e+00
 2  3  1     0.0000000000e+00
 2  3  2     0.0000000000e+00
 2  3  3     1.7590621203e-01
 3  1  1     0.0000000000e+00
 3  1  2     0.0000000000e+00
 3  1  3     2.0217026074e-02
 3  2  1     0.0000000000e+00
 3  2  2     0.0000000000e+00
 3  2  3     1.7590621203e-01
 3  3  1     2.2299483469e-01
 3  3  2    -4.6525693172e-02
 3  3  3     0.0000000000e+00

   21
0.0000000000e+00 0.0000000000e+00 0.0000000000e+00
-1.2255312528e+00 -2.1226823962e+00 0.0000000000e+00
     1      1      1
 1  1  1     4.9097722115e-02
 1  1  2     2.5377109382e+00
 1  1  3     0.0000000000e+00
 1  2  1     1.4694869609e+00
 1  2  2     6.5955581113e+00
 1  2  3     0.0000000000e+00
 1  3  1     0.0000000000e+00
 1  3  2     0.0000000000e+00
 1  3  3    -3.5171987698e-01
 2  1  1     1.4694869609e+00
 2  1  2     6.5955581113e+00
 2  1  3     0.0000000000e+00
 2  2  1     4.4497016618e+00
 2  2  2     4.3701136501e+00
 2  2  3     0.0000000000e+00
 2  3  1     0.0000000000e+00
 2  3  2     0.0000000000e+00
 2  3  3    -2.4815368921e+00
 3  1  1     0.0000000000e+00
 3  1  2     0.0000000000e+00
 3  1  3    -3.5171987698e-01
 3  2  1     0.0000000000e+00
 3  2  2     0.0000000000e+00
 3  2  3    -2.4815368921e+00
 3  3  1     7.0154878384e-01
 3  3  2     7.9309953902e-02
 3  3  3     0.0000000000e+00

   22
0.0000000000e+00 0.0000000000e+00 0.0000000000e+00
-1.2255312528e+00 -2.1226823962e+00 0.0000000000e+00
     1      1      3
 1  1  1     1.1917446084e+02
 1  1  2     8.2053978252e+01
 1  1  3     0.0000000000e+00
 1  2  1     8.0525575284e+01
 1  2  2     3.8842396414e+01
 1  2  3     0.0000000000e+00
 1  3  1     0.0000000000e+00
 1  3  2     0.0000000000e+00
 1  3  3    -1.3656033960e+01
 2  1  1     8.0525575284e+01
 2  1  2     3.8842396414e+01
 2  1  3     0.0000000000e+00
 2  2  1     4.1489668009e+01
 2  2  2     1.0705499787e+01
 2  2  3     0.0000000000e+00
 2  3  1     0.0000000000e+00
 2  3  2     0.0000000000e+00
 2  3  3    -7.8843148831e+00
 3  1  1     0.0000000000e+00
 3  1  2     0.0000000000e+00
 3  1  3    -1.3656033960e+01
 3  2  1     0.0000000000e+00
 3  2  2     0.0000000000e+00
 3  2  3    -7.8843148831e+00
 3  3  1    -1.1569246526e+01
 3  3  2    -6.6795075959e+00
 3  3  3     0.0000000000e+00

   23
0.0000000000e+00 0.0000000000e+00 0.0000000000e+00
-1.2255312528e+00 -2.1226823962e+00 0.0000000000e+00
     1      1      4
 1  1  1     0.0000000000e+00
 1  1  2    -3.1056647539e-03
 1  1  3     3.1811685234e-02
 1  2  1    -5.6075383826e-03
 1  2  2     0.0000000000e+00
 1  2  3     0.0000000000e+00
 1  3  1    -9.4145636156e-03
 1  3  2     0.0000000000e+00
 1  3  3     0.0000000000e+00
 2  1  1    -5.6075383826e-03
 2  1  2     0.0000000000e+00
 2  1  3     0.0000000000e+00
 2  2  1     0.0000000000e+00
 2  2  2     8.1094120113e-03
 2  2  3     3.6988682196e-02
 2  3  1     0.0000000000e+00
 2  3  2    -4.1488398870e-02
 2  3  3     3.9219042209e-02
 3  1  1    -9.4145636156e-03
 3  1  2     0.0000000000e+00
 3  1  3     0.0000000000e+00
 3  2  1     0.0000000000e+00
 3  2  2    -4.1488398870e-02
 3  2  3     3.9219042209e-02
 3  3  1     0.0000000000e+00
 3  3  2     1.7552564324e-01
 3  3  3    -1.2538797521e-01

   24
0.0000000000e+00 0.0000000000e+00 0.0000000000e+00
0.0000000000e+00 0.0000000000e+00 -6.6531781108e+00
     1      1      2
 1  1  1     0.0000000000e+00
 1  1  2     1.3498288286e-02
 1  1  3    -1.1348385957e-01
 1  2  1     1.3498288286e-02
 1  2  2     0.0000000000e+00
 1  2  3     0.0000000000e+00
 1  3  1    -4.7343722946e-02
 1  3  2     0.0000000000e+00
 1  3  3     0.0000000000e+00
 2  1  1     1.3498288286e-02
 2  1  2     0.0000000000e+00
 2  1  3     0.0000000000e+00
 2  2  1     0.0000000000e+00
 2  2  2    -1.3498288286e-02
 2  2  3    -1.1348385957e-01
 2  3  1     0.0000000000e+00
 2  3  2    -4.7343722946e-02
 2  3  3     0.0000000000e+00
 3  1  1    -4.7343722946e-02
 3  1  2     0.0000000000e+00
 3  1  3     0.0000000000e+00
 3  2  1     0.0000000000e+00
 3  2  2    -4.7343722946e-02
 3  2  3     0.0000000000e+00
 3  3  1     0.0000000000e+00
 3  3  2     0.0000000000e+00
 3  3  3    -3.5995445663e-02

   25
0.0000000000e+00 0.0000000000e+00 0.0000000000e+00
0.0000000000e+00 0.0000000000e+00 -6.6531781108e+00
     1      1      4
 1  1  1    -2.1666861195e-03
 1  1  2    -6.8584751969e-03
 1  1  3    -3.5694432956e-02
 1  2  1    -5.6075383826e-03
 1  2  2     1.0842021725e-16
 1  2  3    -2.2417054421e-03
 1  3  1     3.3469940056e-02
 1  3  2     1.3888378064e-02
 1  3  3    -3.3964686865e-02
 2  1  1    -5.6075383826e-03
 2  1  2     1.0842021725e-16
 2  1  3    -2.2417054421e-03
 2  2  1    -2.1666861195e-03
 2  2  2     4.3566015683e-03
 2  2  3    -3.3105934475e-02
 2  3  1     1.3888378064e-02
 2  3  2     1.7433022429e-02
 2  3  3    -1.9609521104e-02
 3  1  1     3.3469940056e-02
 3  1  2     1.3888378064e-02
 3  1  3    -3.3964686865e-02
 3  2  1     1.3888378064e-02
 3  2  2     1.7433022429e-02
 3  2  3    -1.9609521104e-02
 3  3  1    -1.5200966606e-01
 3  3  2    -8.7762821622e-02
 3  3  3     1.2538797521e-01

   26
0.0000000000e+00 0.0000000000e+00 0.0000000000e+00
-2.4510625057e+00 0.0000000000e+00 -6.6531781108e+00
     1      1      4
 1  1  1     2.1666861195e-03
 1  1  2    -6.8584751969e-03
 1  1  3    -3.5694432956e-02
 1  2  1    -5.6075383826e-03
 1  2  2    -1.0842021725e-16
 1  2  3     2.2417054421e-03
 1  3  1     3.3469940056e-02
 1  3  2    -1.3888378064e-02
 1  3  3     3.3964686865e-02
 2  1  1    -5.6075383826e-03
 2  1  2    -1.0842021725e-16
 2  1  3     2.2417054421e-03
 2  2  1     2.1666861195e-03
 2  2  2     4.3566015683e-03
 2  2  3    -3.3105934475e-02
 2  3  1    -1.3888378064e-02
 2  3  2     1.7433022429e-02
 2  3  3    -1.9609521104e-02
 3  1  1     3.3469940056e-02
 3  1  2    -1.3888378064e-02
 3  1  3     3.3964686865e-02
 3  2  1    -1.3888378064e-02
 3  2  2     1.7433022429e-02
 3  2  3    -1.9609521104e-02
 3  3  1     1.5200966606e-01
 3  3  2    -8.7762821622e-02
 3  3  3     1.2538797521e-01

   27
0.0000000000e+00 0.0000000000e+00 0.0000000000e+00
-1.2255312528e+00 -2.1226823962e+00 -6.6531781108e+00
     1      1      4
 1  1  1     0.0000000000e+00
 1  1  2    -3.1056647539e-03
 1  1  3    -3.1811685234e-02
 1  2  1    -5.6075383826e-03
 1  2  2     0.0000000000e+00
 1  2  3     0.0000000000e+00
 1  3  1     9.4145636156e-03
 1  3  2     0.0000000000e+00
 1  3  3     0.0000000000e+00
 2  1  1    -5.6075383826e-03
 2  1  2     0.0000000000e+00
 2  1  3     0.0000000000e+00
 2  2  1     0.0000000000e+00
 2  2  2     8.1094120113e-03
 2  2  3    -3.6988682196e-02
 2  3  1     0.0000000000e+00
 2  3  2     4.1488398870e-02
 2  3  3     3.9219042209e-02
 3  1  1     9.4145636156e-03
 3  1  2     0.0000000000e+00
 3  1  3     0.0000000000e+00
 3  2  1     0.0000000000e+00
 3  2  2     4.1488398870e-02
 3  2  3     3.9219042209e-02
 3  3  1     0.0000000000e+00
 3  3  2     1.7552564324e-01
 3  3  3     1.2538797521e-01

   28
0.0000000000e+00 0.0000000000e+00 0.0000000000e+00
0.0000000000e+00 0.0000000000e+00 0.0000000000e+00
     1      2      1
 1  1  1     0.0000000000e+00
 1  1  2     1.3498288286e-02
 1  1  3     4.7343722946e-02
 1  2  1     1.3498288286e-02
 1  2  2     0.0000000000e+00
 1  2  3     0.0000000000e+00
 1  3  1     1.1348385957e-01
 1  3  2     0.0000000000e+00
 1  3  3     0.0000000000e+00
 2  1  1     1.3498288286e-02
 2  1  2     0.0000000000e+00
 2  1  3     0.0000000000e+00
 2  2  1     0.0000000000e+00
 2  2  2    -1.3498288286e-02
 2  2  3     4.7343722946e-02
 2  3  1     0.0000000000e+00
 2  3  2     1.1348385957e-01
 2  3  3     0.0000000000e+00
 3  1  1     4.7343722946e-02
 3  1  2     0.0000000000e+00
 3  1  3     0.0000000000e+00
 3  2  1     0.0000000000e+00
 3  2  2     4.7343722946e-02
 3  2  3     0.0000000000e+00
 3  3  1     0.0000000000e+00
 3  3  2     0.0000000000e+00
 3  3  3     3.5995445663e-02

   29
0.0000000000e+00 0.0000000000e+00 0.0000000000e+00
0.0000000000e+00 0.0000000000e+00 0.0000000000e+00
     1      2      2
 1  1  1     0.0000000000e+00
 1  1  2    -1.3498288286e-02
 1  1  3    -4.7343722946e-02
 1  2  1    -1.3498288286e-02
 1  2  2     0.0000000000e+00
 1  2  3     0.0000000000e+00
 1  3  1    -4.7343722946e-02
 1  3  2     0.0000000000e+00
 1  3  3     0.0000000000e+00
 2  1  1    -1.3498288286e-02
 2  1  2     0.0000000000e+00
 2  1  3     0.0000000000e+00
 2  2  1     0.0000000000e+00
 2  2  2     1.3498288286e-02
 2  2  3    -4.7343722946e-02
 2  3  1     0.0000000000e+00
 2  3  2    -4.7343722946e-02
 2  3  3     0.0000000000e+00
 3  1  1    -1.1348385957e-01
 3  1  2     0.0000000000e+00
 3  1  3     0.0000000000e+00
 3  2  1     0.0000000000e+00
 3  2  2    -1.1348385957e-01
 3  2  3     0.0000000000e+00
 3  3  1     0.0000000000e+00
 3  3  2     0.0000000000e+00
 3  3  3    -3.5995445663e-02

   30
0.0000000000e+00 0.0000000000e+00 0.0000000000e+00
0.0000000000e+00 0.0000000000e+00 0.0000000000e+00
     1      2      3
 1  1  1     0.0000000000e+00
 1  1  2     1.5378115175e-02
 1  1  3    -2.0927849463e-02
 1  2  1    -1.0245957520e-02
 1  2  2     0.0000000000e+00
 1  2  3     0.0000000000e+00
 1  3  1     1.2144318456e-02
 1  3  2     0.0000000000e+00
 1  3  3     0.0000000000e+00
 2  1  1     4.3813608889e-03
 2  1  2     0.0000000000e+00
 2  1  3     0.0000000000e+00
 2  2  1     0.0000000000e+00
 2  2  2     1.1289907198e-02
 2  2  3    -8.0189309250e-03
 2  3  1     0.0000000000e+00
 2  3  2    -4.2249413935e-02
 2  3  3    -4.0791668763e-02
 3  1  1     8.3343949718e-03
 3  1  2     0.0000000000e+00
 3  1  3     0.0000000000e+00
 3  2  1     0.0000000000e+00
 3  2  2     5.6544913803e-03
 3  2  3    -4.5012693743e-03
 3  3  1     0.0000000000e+00
 3  3  2     1.2003126117e-01
 3  3  3    -1.2238774573e-01

   31
0.0000000000e+00 0.0000000000e+00 0.0000000000e+00
0.0000000000e+00 0.0000000000e+00 0.0000000000e+00
     1      2      4
 1  1  1     9.3927470149e-03
 1  1  2     8.3552033328e-03
 1  1  3     1.1246160560e-02
 1  2  1     2.8568261895e-03
 1  2  2    -8.4886600728e-03
 1  2  3    -5.5897256947e-03
 1  3  1    -6.3244672782e-03
 1  3  2     1.1604322950e-03
 1  3  3    -3.8982136274e-03
 2  1  1    -4.4568330147e-03
 2  1  2     4.1789692582e-03
 2  1  3    -5.5897256947e-03
 2  2  1     1.3702437830e-02
 2  2  2     4.9788078541e-03
 2  2  3     1.7700619829e-02
 2  3  1     1.1604322950e-03
 2  3  2    -7.6644190740e-03
 2  3  3    -2.2506346872e-03
 3  1  1     2.8650980837e-02
 3  1  2     2.3553177029e-02
 3  1  3    -3.5326621412e-02
 3  2  1     2.3553177029e-02
 3  2  2     1.4541146414e-03
 3  2  3    -2.0395834382e-02
 3  3  1     1.0395012142e-01
 3  3  2     6.0015630585e-02
 3  3  3     1.2238774573e-01

   32
0.0000000000e+00 0.0000000000e+00 0.0000000000e+00
-2.4510625057e+00 0.0000000000e+00 0.0000000000e+00
     1      2      4
 1  1  1    -9.3927470149e-03
 1  1  2     8.3552033328e-03
 1  1  3     1.1246160560e-02
 1  2  1     2.8568261895e-03
 1  2  2     8.4886600728e-03
 1  2  3     5.5897256947e-03
 1  3  1    -6.3244672782e-03
 1  3  2    -1.1604322950e-03
 1  3  3     3.8982136274e-03
 2  1  1    -4.4568330147e-03
 2  1  2    -4.1789692582e-03
 2  1  3     5.5897256947e-03
 2  2  1    -1.3702437830e-02
 2  2  2     4.9788078541e-03
 2  2  3     1.7700619829e-02
 2  3  1    -1.1604322950e-03
 2  3  2    -7.6644190740e-03
 2  3  3    -2.2506346872e-03
 3  1  1     2.8650980837e-02
 3  1  2    -2.3553177029e-02
 3  1  3     3.5326621412e-02
 3  2  1    -2.3553177029e-02
 3  2  2     1.4541146414e-03