   0.12916E+01   0.79314E-05   0.21750E-04
   0.25833E+01   0.52467E-04   0.14394E-03
   0.38749E+01   0.94585E-04   0.26029E-03
   0.51666E+01   0.19661E-03   0.54205E-03
   0.64582E+01   0.25781E-03   0.71477E-03
   0.77498E+01   0.41189E-03   0.11465E-02
   0.90415E+01   0.54431E-03   0.15258E-02
   0.10333E+02   0.69785E-03   0.19679E-02
   0.11625E+02   0.93098E-03   0.26537E-02
   0.12916E+02   0.10719E-02   0.30800E-02
   0.14208E+02   0.14237E-02   0.41450E-02
   0.15500E+02   0.16073E-02   0.47333E-02
   0.16791E+02   0.19464E-02   0.58303E-02
   0.18083E+02   0.22469E-02   0.68461E-02
   0.19375E+02   0.25422E-02   0.79005E-02
   0.20666E+02   0.29950E-02   0.95276E-02
   0.21958E+02   0.33730E-02   0.11003E-01
   0.23250E+02   0.37464E-02   0.12597E-01
   0.24541E+02   0.42539E-02   0.14790E-01
   0.25833E+02   0.46749E-02   0.16924E-01
   0.27124E+02   0.50691E-02   0.19147E-01
   0.28416E+02   0.56192E-02   0.22356E-01
   0.29708E+02   0.61095E-02   0.25897E-01
   0.30999E+02   0.66996E-02   0.30558E-01
   0.32291E+02   0.71041E-02   0.35567E-01
   0.33583E+02   0.75508E-02   0.42293E-01
   0.34874E+02   0.77985E-02   0.50768E-01
   0.36166E+02   0.79031E-02   0.65468E-01
   0.37458E+02   0.75256E-02   0.87259E-01
   0.38749E+02   0.69290E-02   0.91597E-01
   0.40041E+02   0.62325E-02   0.95791E-01
   0.41333E+02   0.56983E-02   0.10079E+00
   0.42624E+02   0.51217E-02   0.10390E+00
   0.43916E+02   0.48756E-02   0.11009E+00
   0.45207E+02   0.48584E-02   0.11413E+00
   0.46499E+02   0.38206E-02   0.84374E-01
   0.47791E+02   0.35736E-02   0.70069E-01
   0.49082E+02   0.48926E-01   0.61166E-01
   0.50374E+02   0.18888E+00   0.93489E-01
   0.51666E+02   0.16970E+00   0.88196E-01
   0.52957E+02   0.15391E+00   0.78817E-01
   0.54249E+02   0.13491E+00   0.67271E-01
   0.55541E+02   0.12429E+00   0.52646E-01
   0.56832E+02   0.11966E+00   0.56984E-01
   0.58124E+02   0.12098E+00   0.98047E-01
   0.59416E+02   0.10718E+00   0.14359E+00
   0.60707E+02   0.46457E-01   0.27762E-01
   0.61999E+02   0.38440E-01   0.16506E-01
   0.63290E+02   0.34611E-01   0.18574E-01
   0.64582E+02   0.31860E-01   0.21895E-01
   0.65874E+02   0.31138E-01   0.27964E-01
   0.67165E+02   0.37711E-01   0.48626E-01
   0.68457E+02   0.30927E-01   0.30095E-01
   0.69749E+02   0.25897E-01   0.74442E-02
   0.71040E+02   0.20903E-01   0.24774E-02
   0.72332E+02   0.14155E-01   0.14814E-02
   0.73624E+02   0.86509E-02   0.83712E-03
   0.74915E+02   0.59850E-02   0.57216E-03
   0.76207E+02   0.51864E-02   0.49464E-03
   0.77498E+02   0.72589E-02   0.71138E-03
   0.78790E+02   0.10959E-01   0.11259E-02
   0.80082E+02   0.14364E-01   0.15772E-02
   0.81373E+02   0.18195E-01   0.20901E-02
   0.82665E+02   0.21137E-01   0.26216E-02
   0.83957E+02   0.25206E-01   0.33153E-02
   0.85248E+02   0.27655E-01   0.38730E-02
   0.86540E+02   0.24418E-01   0.30938E-02
   0.87832E+02   0.23502E-01   0.28744E-02
   0.89123E+02   0.23192E-01   0.27956E-02
   0.90415E+02   0.23513E-01   0.28019E-02
   0.91707E+02   0.23214E-01   0.28027E-02
   0.92998E+02   0.23853E-01   0.28495E-02
   0.94290E+02   0.23586E-01   0.28953E-02
   0.95581E+02   0.24201E-01   0.29685E-02
   0.96873E+02   0.24264E-01   0.30561E-02
   0.98165E+02   0.24555E-01   0.31408E-02
   0.99456E+02   0.24950E-01   0.32255E-02
   0.10075E+03   0.24928E-01   0.33449E-02
   0.10204E+03   0.25624E-01   0.34721E-02
   0.10333E+03   0.25873E-01   0.35691E-02
   0.10462E+03   0.25728E-01   0.36747E-02
   0.10591E+03   0.25900E-01   0.38038E-02
   0.10721E+03   0.26155E-01   0.39277E-02
   0.10850E+03   0.26456E-01   0.40740E-02
   0.10979E+03   0.26713E-01   0.42409E-02
   0.11108E+03   0.20699E-01   0.43196E-02
   0.11237E+03   0.17013E-01   0.41725E-02
   0.11366E+03   0.13990E-01   0.38999E-02
   0.11496E+03   0.10963E-01   0.33924E-02
   0.11625E+03   0.74873E-02   0.25356E-02
   0.11754E+03   0.52645E-04   0.19181E-04
   0.11883E+03   0.00000E+00   0.00000E+00
   0.12012E+03   0.00000E+00   0.00000E+00
   0.12141E+03   0.00000E+00   0.00000E+00
   0.12271E+03   0.00000E+00   0.00000E+00
   0.12400E+03   0.00000E+00   0.00000E+00
   0.12529E+03   0.00000E+00   0.00000E+00
   0.12658E+03   0.00000E+00   0.00000E+00
   0.12787E+03   0.00000E+00   0.00000E+00
   0.12916E+03   0.00000E+00   0.00000E+00
