  350

    1
0.0000000000e+00 0.0000000000e+00 0.0000000000e+00
0.0000000000e+00 0.0000000000e+00 0.0000000000e+00
     1      1      1
 1  1  1     0.0000000000e+00
 1  1  2     0.0000000000e+00
 1  1  3     0.0000000000e+00
 1  2  1     0.0000000000e+00
 1  2  2     0.0000000000e+00
 1  2  3     0.0000000000e+00
 1  3  1     0.0000000000e+00
 1  3  2     0.0000000000e+00
 1  3  3     0.0000000000e+00
 2  1  1     0.0000000000e+00
 2  1  2     0.0000000000e+00
 2  1  3     0.0000000000e+00
 2  2  1     0.0000000000e+00
 2  2  2     0.0000000000e+00
 2  2  3     0.0000000000e+00
 2  3  1     0.0000000000e+00
 2  3  2     0.0000000000e+00
 2  3  3     0.0000000000e+00
 3  1  1     0.0000000000e+00
 3  1  2     0.0000000000e+00
 3  1  3     0.0000000000e+00
 3  2  1     0.0000000000e+00
 3  2  2     0.0000000000e+00
 3  2  3     0.0000000000e+00
 3  3  1     0.0000000000e+00
 3  3  2     0.0000000000e+00
 3  3  3     0.0000000000e+00

    2
0.0000000000e+00 0.0000000000e+00 0.0000000000e+00
-2.0032955838e+00 0.0000000000e+00 2.0032955838e+00
     1      1      1
 1  1  1     1.3498292124e-02
 1  1  2     0.0000000000e+00
 1  1  3    -5.0503253374e-01
 1  2  1     0.0000000000e+00
 1  2  2    -2.0228437007e-01
 1  2  3     0.0000000000e+00
 1  3  1    -4.6950584534e-01
 1  3  2     0.0000000000e+00
 1  3  3     4.6950584534e-01
 2  1  1     0.0000000000e+00
 2  1  2    -2.0228437007e-01
 2  1  3     0.0000000000e+00
 2  2  1    -2.5160611039e-01
 2  2  2     0.0000000000e+00
 2  2  3     2.5160611039e-01
 2  3  1     0.0000000000e+00
 2  3  2     2.0228437007e-01
 2  3  3     0.0000000000e+00
 3  1  1    -4.6950584534e-01
 3  1  2     0.0000000000e+00
 3  1  3     4.6950584534e-01
 3  2  1     0.0000000000e+00
 3  2  2     2.0228437007e-01
 3  2  3     0.0000000000e+00
 3  3  1     5.0503253374e-01
 3  3  2     0.0000000000e+00
 3  3  3    -1.3498292124e-02

    3
0.0000000000e+00 0.0000000000e+00 0.0000000000e+00
2.0032955838e+00 0.0000000000e+00 -2.0032955838e+00
     1      1      1
 1  1  1    -1.3498292124e-02
 1  1  2     0.0000000000e+00
 1  1  3     5.0503253374e-01
 1  2  1     0.0000000000e+00
 1  2  2     2.0228437007e-01
 1  2  3     0.0000000000e+00
 1  3  1     4.6950584534e-01
 1  3  2     0.0000000000e+00
 1  3  3    -4.6950584534e-01
 2  1  1     0.0000000000e+00
 2  1  2     2.0228437007e-01
 2  1  3     0.0000000000e+00
 2  2  1     2.5160611039e-01
 2  2  2     0.0000000000e+00
 2  2  3    -2.5160611039e-01
 2  3  1     0.0000000000e+00
 2  3  2    -2.0228437007e-01
 2  3  3     0.0000000000e+00
 3  1  1     4.6950584534e-01
 3  1  2     0.0000000000e+00
 3  1  3    -4.6950584534e-01
 3  2  1     0.0000000000e+00
 3  2  2    -2.0228437007e-01
 3  2  3     0.0000000000e+00
 3  3  1    -5.0503253374e-01
 3  3  2     0.0000000000e+00
 3  3  3     1.3498292124e-02

    4
0.0000000000e+00 0.0000000000e+00 0.0000000000e+00
2.0032955838e+00 0.0000000000e+00 -2.0032955838e+00
     1      1      2
 1  1  1     0.0000000000e+00
 1  1  2     3.2614413273e-01
 1  1  3     0.0000000000e+00
 1  2  1    -2.9339053499e-01
 1  2  2     0.0000000000e+00
 1  2  3     0.0000000000e+00
 1  3  1     0.0000000000e+00
 1  3  2     0.0000000000e+00
 1  3  3     0.0000000000e+00
 2  1  1    -2.9339053499e-01
 2  1  2     0.0000000000e+00
 2  1  3     0.0000000000e+00
 2  2  1     0.0000000000e+00
 2  2  2    -8.5007065603e+00
 2  2  3     0.0000000000e+00
 2  3  1     0.0000000000e+00
 2  3  2     0.0000000000e+00
 2  3  3    -2.9339053499e-01
 3  1  1     0.0000000000e+00
 3  1  2     0.0000000000e+00
 3  1  3     0.0000000000e+00
 3  2  1     0.0000000000e+00
 3  2  2     0.0000000000e+00
 3  2  3    -2.9339053499e-01
 3  3  1     0.0000000000e+00
 3  3  2     3.2614413273e-01
 3  3  3     0.0000000000e+00

    5
0.0000000000e+00 0.0000000000e+00 0.0000000000e+00
0.0000000000e+00 2.0032955838e+00 2.0032955838e+00
     1      1      1
 1  1  1     0.0000000000e+00
 1  1  2     2.5160611039e-01
 1  1  3     2.5160611039e-01
 1  2  1     2.0228437007e-01
 1  2  2     0.0000000000e+00
 1  2  3     0.0000000000e+00
 1  3  1     2.0228437007e-01
 1  3  2     0.0000000000e+00
 1  3  3     0.0000000000e+00
 2  1  1     2.0228437007e-01
 2  1  2     0.0000000000e+00
 2  1  3     0.0000000000e+00
 2  2  1     0.0000000000e+00
 2  2  2    -1.3498292124e-02
 2  2  3    -5.0503253374e-01
 2  3  1     0.0000000000e+00
 2  3  2    -4.6950584534e-01
 2  3  3    -4.6950584534e-01
 3  1  1     2.0228437007e-01
 3  1  2     0.0000000000e+00
 3  1  3     0.0000000000e+00
 3  2  1     0.0000000000e+00
 3  2  2    -4.6950584534e-01
 3  2  3    -4.6950584534e-01
 3  3  1     0.0000000000e+00
 3  3  2    -5.0503253374e-01
 3  3  3    -1.3498292124e-02

    6
0.0000000000e+00 0.0000000000e+00 0.0000000000e+00
2.0032955838e+00 2.0032955838e+00 -2.0372382950e-16
     1      1      1
 1  1  1    -1.3498292124e-02
 1  1  2    -5.0503253374e-01
 1  1  3     0.0000000000e+00
 1  2  1    -4.6950584534e-01
 1  2  2    -4.6950584534e-01
 1  2  3     0.0000000000e+00
 1  3  1     0.0000000000e+00
 1  3  2     0.0000000000e+00
 1  3  3     2.0228437007e-01
 2  1  1    -4.6950584534e-01
 2  1  2    -4.6950584534e-01
 2  1  3     0.0000000000e+00
 2  2  1    -5.0503253374e-01
 2  2  2    -1.3498292124e-02
 2  2  3     0.0000000000e+00
 2  3  1     0.0000000000e+00
 2  3  2     0.0000000000e+00
 2  3  3     2.0228437007e-01
 3  1  1     0.0000000000e+00
 3  1  2     0.0000000000e+00
 3  1  3     2.0228437007e-01
 3  2  1     0.0000000000e+00
 3  2  2     0.0000000000e+00
 3  2  3     2.0228437007e-01
 3  3  1     2.5160611039e-01
 3  3  2     2.5160611039e-01
 3  3  3     0.0000000000e+00

    7
0.0000000000e+00 0.0000000000e+00 0.0000000000e+00
0.0000000000e+00 -2.0032955838e+00 -2.0032955838e+00
     1      1      1
 1  1  1     0.0000000000e+00
 1  1  2    -2.5160611039e-01
 1  1  3    -2.5160611039e-01
 1  2  1    -2.0228437007e-01
 1  2  2     0.0000000000e+00
 1  2  3     0.0000000000e+00
 1  3  1    -2.0228437007e-01
 1  3  2     0.0000000000e+00
 1  3  3     0.0000000000e+00
 2  1  1    -2.0228437007e-01
 2  1  2     0.0000000000e+00
 2  1  3     0.0000000000e+00
 2  2  1     0.0000000000e+00
 2  2  2     1.3498292124e-02
 2  2  3     5.0503253374e-01
 2  3  1     0.0000000000e+00
 2  3  2     4.6950584534e-01
 2  3  3     4.6950584534e-01
 3  1  1    -2.0228437007e-01
 3  1  2     0.0000000000e+00
 3  1  3     0.0000000000e+00
 3  2  1     0.0000000000e+00
 3  2  2     4.6950584534e-01
 3  2  3     4.6950584534e-01
 3  3  1     0.0000000000e+00
 3  3  2     5.0503253374e-01
 3  3  3     1.3498292124e-02

    8
0.0000000000e+00 0.0000000000e+00 0.0000000000e+00
0.0000000000e+00 -2.0032955838e+00 -2.0032955838e+00
     1      1      2
 1  1  1     8.5007065603e+00
 1  1  2     0.0000000000e+00
 1  1  3     0.0000000000e+00
 1  2  1     0.0000000000e+00
 1  2  2     2.9339053499e-01
 1  2  3     0.0000000000e+00
 1  3  1     0.0000000000e+00
 1  3  2     0.0000000000e+00
 1  3  3     2.9339053499e-01
 2  1  1     0.0000000000e+00
 2  1  2     2.9339053499e-01
 2  1  3     0.0000000000e+00
 2  2  1    -3.2614413273e-01
 2  2  2     0.0000000000e+00
 2  2  3     0.0000000000e+00
 2  3  1     0.0000000000e+00
 2  3  2     0.0000000000e+00
 2  3  3     0.0000000000e+00
 3  1  1     0.0000000000e+00
 3  1  2     0.0000000000e+00
 3  1  3     2.9339053499e-01
 3  2  1     0.0000000000e+00
 3  2  2     0.0000000000e+00
 3  2  3     0.0000000000e+00
 3  3  1    -3.2614413273e-01
 3  3  2     0.0000000000e+00
 3  3  3     0.0000000000e+00

    9
0.0000000000e+00 0.0000000000e+00 0.0000000000e+00
-2.0032955838e+00 -2.0032955838e+00 -4.0744765900e-16
     1      1      1
 1  1  1     1.3498292124e-02
 1  1  2     5.0503253374e-01
 1  1  3     0.0000000000e+00
 1  2  1     4.6950584534e-01
 1  2  2     4.6950584534e-01
 1  2  3     0.0000000000e+00
 1  3  1     0.0000000000e+00
 1  3  2     0.0000000000e+00
 1  3  3    -2.0228437007e-01
 2  1  1     4.6950584534e-01
 2  1  2     4.6950584534e-01
 2  1  3     0.0000000000e+00
 2  2  1     5.0503253374e-01
 2  2  2     1.3498292124e-02
 2  2  3     0.0000000000e+00
 2  3  1     0.0000000000e+00
 2  3  2     0.0000000000e+00
 2  3  3    -2.0228437007e-01
 3  1  1     0.0000000000e+00
 3  1  2     0.0000000000e+00
 3  1  3    -2.0228437007e-01
 3  2  1     0.0000000000e+00
 3  2  2     0.0000000000e+00
 3  2  3    -2.0228437007e-01
 3  3  1    -2.5160611039e-01
 3  3  2    -2.5160611039e-01
 3  3  3     0.0000000000e+00

   10
0.0000000000e+00 0.0000000000e+00 0.0000000000e+00
2.0032955838e+00 -2.0032955838e+00 -4.0065911677e+00
     1      1      2
 1  1  1     0.0000000000e+00
 1  1  2     0.0000000000e+00
 1  1  3    -3.2614413273e-01
 1  2  1     0.0000000000e+00
 1  2  2     0.0000000000e+00
 1  2  3     0.0000000000e+00
 1  3  1     2.9339053499e-01
 1  3  2     0.0000000000e+00
 1  3  3     0.0000000000e+00
 2  1  1     0.0000000000e+00
 2  1  2     0.0000000000e+00
 2  1  3     0.0000000000e+00
 2  2  1     0.0000000000e+00
 2  2  2     0.0000000000e+00
 2  2  3    -3.2614413273e-01
 2  3  1     0.0000000000e+00
 2  3  2     2.9339053499e-01
 2  3  3     0.0000000000e+00
 3  1  1     2.9339053499e-01
 3  1  2     0.0000000000e+00
 3  1  3     0.0000000000e+00
 3  2  1     0.0000000000e+00
 3  2  2     2.9339053499e-01
 3  2  3     0.0000000000e+00
 3  3  1     0.0000000000e+00
 3  3  2     0.0000000000e+00
 3  3  3     8.5007065603e+00

   11
0.0000000000e+00 0.0000000000e+00 0.0000000000e+00
-2.0032955838e+00 2.0032955838e+00 0.0000000000e+00
     1      1      1
 1  1  1     1.3498292124e-02
 1  1  2    -5.0503253374e-01
 1  1  3     0.0000000000e+00
 1  2  1    -4.6950584534e-01
 1  2  2     4.6950584534e-01
 1  2  3     0.0000000000e+00
 1  3  1     0.0000000000e+00
 1  3  2     0.0000000000e+00
 1  3  3    -2.0228437007e-01
 2  1  1    -4.6950584534e-01
 2  1  2     4.6950584534e-01
 2  1  3     0.0000000000e+00
 2  2  1     5.0503253374e-01
 2  2  2    -1.3498292124e-02
 2  2  3     0.0000000000e+00
 2  3  1     0.0000000000e+00
 2  3  2     0.0000000000e+00
 2  3  3     2.0228437007e-01
 3  1  1     0.0000000000e+00
 3  1  2     0.0000000000e+00
 3  1  3    -2.0228437007e-01
 3  2  1     0.0000000000e+00
 3  2  2     0.0000000000e+00
 3  2  3     2.0228437007e-01
 3  3  1    -2.5160611039e-01
 3  3  2     2.5160611039e-01
 3  3  3     0.0000000000e+00

   12
0.0000000000e+00 0.0000000000e+00 0.0000000000e+00
2.0372382950e-16 2.0032955838e+00 -2.0032955838e+00
     1      1      1
 1  1  1     0.0000000000e+00
 1  1  2     2.5160611039e-01
 1  1  3    -2.5160611039e-01
 1  2  1     2.0228437007e-01
 1  2  2     0.0000000000e+00
 1  2  3     0.0000000000e+00
 1  3  1    -2.0228437007e-01
 1  3  2     0.0000000000e+00
 1  3  3     0.0000000000e+00
 2  1  1     2.0228437007e-01
 2  1  2     0.0000000000e+00
 2  1  3     0.0000000000e+00
 2  2  1     0.0000000000e+00
 2  2  2    -1.3498292124e-02
 2  2  3     5.0503253374e-01
 2  3  1     0.0000000000e+00
 2  3  2     4.6950584534e-01
 2  3  3    -4.6950584534e-01
 3  1  1    -2.0228437007e-01
 3  1  2     0.0000000000e+00
 3  1  3     0.0000000000e+00
 3  2  1     0.0000000000e+00
 3  2  2     4.6950584534e-01
 3  2  3    -4.6950584534e-01
 3  3  1     0.0000000000e+00
 3  3  2    -5.0503253374e-01
 3  3  3     1.3498292124e-02

   13
0.0000000000e+00 0.0000000000e+00 0.0000000000e+00
-2.0032955838e+00 -2.0372382950e-16 -2.0032955838e+00
     1      1      1
 1  1  1     1.3498292124e-02
 1  1  2     0.0000000000e+00
 1  1  3     5.0503253374e-01
 1  2  1     0.0000000000e+00
 1  2  2    -2.0228437007e-01
 1  2  3     0.0000000000e+00
 1  3  1     4.6950584534e-01
 1  3  2     0.0000000000e+00
 1  3  3     4.6950584534e-01
 2  1  1     0.0000000000e+00
 2  1  2    -2.0228437007e-01
 2  1  3     0.0000000000e+00
 2  2  1    -2.5160611039e-01
 2  2  2     0.0000000000e+00
 2  2  3    -2.5160611039e-01
 2  3  1     0.0000000000e+00
 2  3  2    -2.0228437007e-01
 2  3  3     0.0000000000e+00
 3  1  1     4.6950584534e-01
 3  1  2     0.0000000000e+00
 3  1  3     4.6950584534e-01
 3  2  1     0.0000000000e+00
 3  2  2    -2.0228437007e-01
 3  2  3     0.0000000000e+00
 3  3  1     5.0503253374e-01
 3  3  2     0.0000000000e+00
 3  3  3     1.3498292124e-02

   14
0.0000000000e+00 0.0000000000e+00 0.0000000000e+00
2.0032955838e+00 -2.0032955838e+00 0.0000000000e+00
     1      1      1
 1  1  1    -1.3498292124e-02
 1  1  2     5.0503253374e-01
 1  1  3     0.0000000000e+00
 1  2  1     4.6950584534e-01
 1  2  2    -4.6950584534e-01
 1  2  3     0.0000000000e+00
 1  3  1     0.0000000000e+00
 1  3  2     0.0000000000e+00
 1  3  3     2.0228437007e-01
 2  1  1     4.6950584534e-01
 2  1  2    -4.6950584534e-01
 2  1  3     0.0000000000e+00
 2  2  1    -5.0503253374e-01
 2  2  2     1.3498292124e-02
 2  2  3     0.0000000000e+00
 2  3  1     0.0000000000e+00
 2  3  2     0.0000000000e+00
 2  3  3    -2.0228437007e-01
 3  1  1     0.0000000000e+00
 3  1  2     0.0000000000e+00
 3  1  3     2.0228437007e-01
 3  2  1     0.0000000000e+00
 3  2  2     0.0000000000e+00
 3  2  3    -2.0228437007e-01
 3  3  1     2.5160611039e-01
 3  3  2    -2.5160611039e-01
 3  3  3     0.0000000000e+00

   15
0.0000000000e+00 0.0000000000e+00 0.0000000000e+00
2.0032955838e+00 -2.0032955838e+00 0.0000000000e+00
     1      1      2
 1  1  1     0.0000000000e+00
 1  1  2     0.0000000000e+00
 1  1  3     3.2614413273e-01
 1  2  1     0.0000000000e+00
 1  2  2     0.0000000000e+00
 1  2  3     0.0000000000e+00
 1  3  1    -2.9339053499e-01
 1  3  2     0.0000000000e+00
 1  3  3     0.0000000000e+00
 2  1  1     0.0000000000e+00
 2  1  2     0.0000000000e+00
 2  1  3     0.0000000000e+00
 2  2  1     0.0000000000e+00
 2  2  2     0.0000000000e+00
 2  2  3     3.2614413273e-01
 2  3  1     0.0000000000e+00
 2  3  2    -2.9339053499e-01
 2  3  3     0.0000000000e+00
 3  1  1    -2.9339053499e-01
 3  1  2     0.0000000000e+00
 3  1  3     0.0000000000e+00
 3  2  1     0.0000000000e+00
 3  2  2    -2.9339053499e-01
 3  2  3     0.0000000000e+00
 3  3  1     0.0000000000e+00
 3  3  2     0.0000000000e+00
 3  3  3    -8.5007065603e+00

   16
0.0000000000e+00 0.0000000000e+00 0.0000000000e+00
4.0744765900e-16 -2.0032955838e+00 2.0032955838e+00
     1      1      1
 1  1  1     0.0000000000e+00
 1  1  2    -2.5160611039e-01
 1  1  3     2.5160611039e-01
 1  2  1    -2.0228437007e-01
 1  2  2     0.0000000000e+00
 1  2  3     0.0000000000e+00
 1  3  1     2.0228437007e-01
 1  3  2     0.0000000000e+00
 1  3  3     0.0000000000e+00
 2  1  1    -2.0228437007e-01
 2  1  2     0.0000000000e+00
 2  1  3     0.0000000000e+00
 2  2  1     0.0000000000e+00
 2  2  2     1.3498292124e-02
 2  2  3    -5.0503253374e-01
 2  3  1     0.0000000000e+00
 2  3  2    -4.6950584534e-01
 2  3  3     4.6950584534e-01
 3  1  1     2.0228437007e-01
 3  1  2     0.0000000000e+00
 3  1  3     0.0000000000e+00
 3  2  1     0.0000000000e+00
 3  2  2    -4.6950584534e-01
 3  2  3     4.6950584534e-01
 3  3  1     0.0000000000e+00
 3  3  2     5.0503253374e-01
 3  3  3    -1.3498292124e-02

   17
0.0000000000e+00 0.0000000000e+00 0.0000000000e+00
4.0065911677e+00 -2.0032955838e+00 -2.0032955838e+00
     1      1      2
 1  1  1    -8.5007065603e+00
 1  1  2     0.0000000000e+00
 1  1  3     0.0000000000e+00
 1  2  1     0.0000000000e+00
 1  2  2    -2.9339053499e-01
 1  2  3     0.0000000000e+00
 1  3  1     0.0000000000e+00
 1  3  2     0.0000000000e+00
 1  3  3    -2.9339053499e-01
 2  1  1     0.0000000000e+00
 2  1  2    -2.9339053499e-01
 2  1  3     0.0000000000e+00
 2  2  1     3.2614413273e-01
 2  2  2     0.0000000000e+00
 2  2  3     0.0000000000e+00
 2  3  1     0.0000000000e+00
 2  3  2     0.0000000000e+00
 2  3  3     0.0000000000e+00
 3  1  1     0.0000000000e+00
 3  1  2     0.0000000000e+00
 3  1  3    -2.9339053499e-01
 3  2  1     0.0000000000e+00
 3  2  2     0.0000000000e+00
 3  2  3     0.0000000000e+00
 3  3  1     3.2614413273e-01
 3  3  2     0.0000000000e+00
 3  3  3     0.0000000000e+00

   18
0.0000000000e+00 0.0000000000e+00 0.0000000000e+00
2.0032955838e+00 -4.0744765900e-16 2.0032955838e+00
     1      1      1
 1  1  1    -1.3498292124e-02
 1  1  2     0.0000000000e+00
 1  1  3    -5.0503253374e-01
 1  2  1     0.0000000000e+00
 1  2  2     2.0228437007e-01
 1  2  3     0.0000000000e+00
 1  3  1    -4.6950584534e-01
 1  3  2     0.0000000000e+00
 1  3  3    -4.6950584534e-01
 2  1  1     0.0000000000e+00
 2  1  2     2.0228437007e-01
 2  1  3     0.0000000000e+00
 2  2  1     2.5160611039e-01
 2  2  2     0.0000000000e+00
 2  2  3     2.5160611039e-01
 2  3  1     0.0000000000e+00
 2  3  2     2.0228437007e-01
 2  3  3     0.0000000000e+00
 3  1  1    -4.6950584534e-01
 3  1  2     0.0000000000e+00
 3  1  3    -4.6950584534e-01
 3  2  1     0.0000000000e+00
 3  2  2     2.0228437007e-01
 3  2  3     0.0000000000e+00
 3  3  1    -5.0503253374e-01
 3  3  2     0.0000000000e+00
 3  3  3    -1.3498292124e-02

   19
0.0000000000e+00 0.0000000000e+00 0.0000000000e+00
2.0032955838e+00 -4.0065911677e+00 -2.0032955838e+00
     1      1      2
 1  1  1     0.0000000000e+00
 1  1  2    -3.2614413273e-01
 1  1  3     0.0000000000e+00
 1  2  1     2.9339053499e-01
 1  2  2     0.0000000000e+00
 1  2  3     0.0000000000e+00
 1  3  1     0.0000000000e+00
 1  3  2     0.0000000000e+00
 1  3  3     0.0000000000e+00
 2  1  1     2.9339053499e-01
 2  1  2     0.0000000000e+00
 2  1  3     0.0000000000e+00
 2  2  1     0.0000000000e+00
 2  2  2     8.5007065603e+00
 2  2  3     0.0000000000e+00
 2  3  1     0.0000000000e+00
 2  3  2     0.0000000000e+00
 2  3  3     2.9339053499e-01
 3  1  1     0.0000000000e+00
 3  1  2     0.0000000000e+00
 3  1  3     0.0000000000e+00
 3  2  1     0.0000000000e+00
 3  2  2     0.0000000000e+00
 3  2  3     2.9339053499e-01
 3  3  1     0.0000000000e+00
 3  3  2    -3.2614413273e-01
 3  3  3     0.0000000000e+00

   20
-2.0032955838e+00 0.0000000000e+00 2.0032955838e+00
0.0000000000e+00 0.0000000000e+00 0.0000000000e+00
     1      1      1
 1  1  1     1.3498292124e-02
 1  1  2     0.0000000000e+00
 1  1  3    -4.6950584534e-01
 1  2  1     0.0000000000e+00
 1  2  2    -2.0228437007e-01
 1  2  3     0.0000000000e+00
 1  3  1    -5.0503253374e-01
 1  3  2     0.0000000000e+00
 1  3  3     4.6950584534e-01
 2  1  1     0.0000000000e+00
 2  1  2    -2.5160611039e-01
 2  1  3     0.0000000000e+00
 2  2  1    -2.0228437007e-01
 2  2  2     0.0000000000e+00
 2  2  3     2.0228437007e-01
 2  3  1     0.0000000000e+00
 2  3  2     2.5160611039e-01
 2  3  3     0.0000000000e+00
 3  1  1    -4.6950584534e-01
 3  1  2     0.0000000000e+00
 3  1  3     5.0503253374e-01
 3  2  1     0.0000000000e+00
 3  2  2     2.0228437007e-01
 3  2  3     0.0000000000e+00
 3  3  1     4.6950584534e-01
 3  3  2     0.0000000000e+00
 3  3  3    -1.3498292124e-02

   21
-2.0032955838e+00 0.0000000000e+00 2.0032955838e+00
-2.0032955838e+00 0.0000000000e+00 2.0032955838e+00
     1      1      1
 1  1  1    -1.3498292124e-02
 1  1  2     0.0000000000e+00
 1  1  3     4.6950584534e-01
 1  2  1     0.0000000000e+00
 1  2  2     2.5160611039e-01
 1  2  3     0.0000000000e+00
 1  3  1     4.6950584534e-01
 1  3  2     0.0000000000e+00
 1  3  3    -5.0503253374e-01
 2  1  1     0.0000000000e+00
 2  1  2     2.0228437007e-01
 2  1  3     0.0000000000e+00
 2  2  1     2.0228437007e-01
 2  2  2     0.0000000000e+00
 2  2  3    -2.0228437007e-01
 2  3  1     0.0000000000e+00
 2  3  2    -2.0228437007e-01
 2  3  3     0.0000000000e+00
 3  1  1     5.0503253374e-01
 3  1  2     0.0000000000e+00
 3  1  3    -4.6950584534e-01
 3  2  1     0.0000000000e+00
 3  2  2    -2.5160611039e-01
 3  2  3     0.0000000000e+00
 3  3  1    -4.6950584534e-01
 3  3  2     0.0000000000e+00
 3  3  3     1.3498292124e-02

   22
-2.0032955838e+00 0.0000000000e+00 2.0032955838e+00
0.0000000000e+00 2.0032955838e+00 2.0032955838e+00
     1      1      1
 1  1  1     1.2855516308e-03
 1  1  2    -2.5672499103e-03
 1  1  3    -3.8501546287e-03
 1  2  1    -4.5023840152e-03
 1  2  2    -3.8501546287e-03
 1  2  3     1.2855516308e-03
 1  3  1     4.5023840152e-03
 1  3  2     3.8566548925e-03
 1  3  3     4.5023840152e-03
 2  1  1     3.8501546287e-03
 2  1  2     2.5672499103e-03
 2  1  3     3.8566548925e-03
 2  2  1     4.5023840152e-03
 2  2  2    -1.2855516308e-03
 2  2  3     4.5023840152e-03
 2  3  1     1.2855516308e-03
 2  3  2    -3.8501546287e-03
 2  3  3    -4.5023840152e-03
 3  1  1     2.5672499103e-03
 3  1  2     7.0705339696e-03
 3  1  3     2.5672499103e-03
 3  2  1     3.8566548925e-03
 3  2  2     2.5672499103e-03
 3  2  3     3.8501546287e-03
 3  3  1    -3.8501546287e-03
 3  3  2    -2.5672499103e-03
 3  3  3     1.2855516308e-03

   23
-2.0032955838e+00 0.0000000000e+00 2.0032955838e+00
0.0000000000e+00 -2.0032955838e+00 -2.0032955838e+00
     1      1      2
 1  1  1     1.2855522156e-02
 1  1  2     0.0000000000e+00
 1  1  3     1.1137099845e-01
 1  2  1     0.0000000000e+00
 1  2  2    -7.3203081815e-02
 1  2  3     0.0000000000e+00
 1  3  1    -9.5143397841e-03
 1  3  2     0.0000000000e+00
 1  3  3    -9.5143397841e-03
 2  1  1     0.0000000000e+00
 2  1  2    -3.6716150575e-02
 2  1  3     0.0000000000e+00
 2  2  1    -5.4391781486e-02
 2  2  2     0.0000000000e+00
 2  2  3    -5.4391781486e-02
 2  3  1     0.0000000000e+00
 2  3  2    -7.3203081815e-02
 2  3  3     0.0000000000e+00
 3  1  1    -4.1170759978e-02
 3  1  2     0.0000000000e+00
 3  1  3    -4.1170759978e-02
 3  2  1     0.0000000000e+00
 3  2  2    -3.6716150575e-02
 3  2  3     0.0000000000e+00
 3  3  1     1.1137099845e-01
 3  3  2     0.0000000000e+00
 3  3  3     1.2855522156e-02

   24
-2.0032955838e+00 0.0000000000e+00 2.0032955838e+00
-2.0032955838e+00 -2.0032955838e+00 -4.0744765900e-16
     1      1      1
 1  1  1    -1.2855516308e-03
 1  1  2     2.5672499103e-03
 1  1  3     3.8501546287e-03
 1  2  1    -3.8501546287e-03
 1  2  2    -2.5672499103e-03
 1  2  3    -3.8566548925e-03
 1  3  1    -2.5672499103e-03
 1  3  2    -7.0705339696e-03
 1  3  3    -2.5672499103e-03
 2  1  1     4.5023840152e-03
 2  1  2     3.8501546287e-03
 2  1  3    -1.2855516308e-03
 2  2  1    -4.5023840152e-03
 2  2  2     1.2855516308e-03
 2  2  3    -4.5023840152e-03
 2  3  1    -3.8566548925e-03
 2  3  2    -2.5672499103e-03
 2  3  3    -3.8501546287e-03
 3  1  1    -4.5023840152e-03
 3  1  2    -3.8566548925e-03
 3  1  3    -4.5023840152e-03
 3  2  1    -1.2855516308e-03
 3  2  2     3.8501546287e-03
 3  2  3     4.5023840152e-03
 3  3  1     3.8501546287e-03
 3  3  2     2.5672499103e-03
 3  3  3    -1.2855516308e-03

   25
-2.0032955838e+00 0.0000000000e+00 2.0032955838e+00
-2.0032955838e+00 2.0032955838e+00 0.0000000000e+00
     1      1      1
 1  1  1    -1.2855516308e-03
 1  1  2    -2.5672499103e-03
 1  1  3     3.8501546287e-03
 1  2  1     3.8501546287e-03
 1  2  2    -2.5672499103e-03
 1  2  3     3.8566548925e-03
 1  3  1    -2.5672499103e-03
 1  3  2     7.0705339696e-03
 1  3  3    -2.5672499103e-03
 2  1  1    -4.5023840152e-03
 2  1  2     3.8501546287e-03
 2  1  3     1.2855516308e-03
 2  2  1    -4.5023840152e-03
 2  2  2    -1.2855516308e-03
 2  2  3    -4.5023840152e-03
 2  3  1     3.8566548925e-03
 2  3  2    -2.5672499103e-03
 2  3  3     3.8501546287e-03
 3  1  1    -4.5023840152e-03
 3  1  2     3.8566548925e-03
 3  1  3    -4.5023840152e-03
 3  2  1     1.2855516308e-03
 3  2  2     3.8501546287e-03
 3  2  3    -4.5023840152e-03
 3  3  1     3.8501546287e-03
 3  3  2    -2.5672499103e-03
 3  3  3    -1.2855516308e-03

   26
-2.0032955838e+00 0.0000000000e+00 2.0032955838e+00
2.0032955838e+00 -2.0032955838e+00 0.0000000000e+00
     1      1      2
 1  1  1    -1.2855522156e-02
 1  1  2     0.0000000000e+00
 1  1  3    -1.1137099845e-01
 1  2  1     0.0000000000e+00
 1  2  2     3.6716150575e-02
 1  2  3     0.0000000000e+00
 1  3  1     4.1170759978e-02
 1  3  2     0.0000000000e+00
 1  3  3     4.1170759978e-02
 2  1  1     0.0000000000e+00
 2  1  2     7.3203081815e-02
 2  1  3     0.0000000000e+00
 2  2  1     5.4391781486e-02
 2  2  2     0.0000000000e+00
 2  2  3     5.4391781486e-02
 2  3  1     0.0000000000e+00
 2  3  2     3.6716150575e-02
 2  3  3     0.0000000000e+00
 3  1  1     9.5143397841e-03
 3  1  2     0.0000000000e+00
 3  1  3     9.5143397841e-03
 3  2  1     0.0000000000e+00
 3  2  2     7.3203081815e-02
 3  2  3     0.0000000000e+00
 3  3  1    -1.1137099845e-01
 3  3  2     0.0000000000e+00
 3  3  3    -1.2855522156e-02

   27
-2.0032955838e+00 0.0000000000e+00 2.0032955838e+00
4.0744765900e-16 -2.0032955838e+00 2.0032955838e+00
     1      1      1
 1  1  1     1.2855516308e-03
 1  1  2     2.5672499103e-03
 1  1  3    -3.8501546287e-03
 1  2  1     4.5023840152e-03
 1  2  2    -3.8501546287e-03
 1  2  3    -1.2855516308e-03
 1  3  1     4.5023840152e-03
 1  3  2    -3.8566548925e-03
 1  3  3     4.5023840152e-03
 2  1  1    -3.8501546287e-03
 2  1  2     2.5672499103e-03
 2  1  3    -3.8566548925e-03
 2  2  1     4.5023840152e-03
 2  2  2     1.2855516308e-03
 2  2  3     4.5023840152e-03
 2  3  1    -1.2855516308e-03
 2  3  2    -3.8501546287e-03
 2  3  3     4.5023840152e-03
 3  1  1     2.5672499103e-03
 3  1  2    -7.0705339696e-03
 3  1  3     2.5672499103e-03
 3  2  1    -3.8566548925e-03
 3  2  2     2.5672499103e-03
 3  2  3    -3.8501546287e-03
 3  3  1    -3.8501546287e-03
 3  3  2     2.5672499103e-03
 3  3  3     1.2855516308e-03

   28
2.0032955838e+00 0.0000000000e+00 -2.0032955838e+00
0.0000000000e+00 0.0000000000e+00 0.0000000000e+00
     1      1      1
 1  1  1    -1.3498292124e-02
 1  1  2     0.0000000000e+00
 1  1  3     4.6950584534e-01
 1  2  1     0.0000000000e+00
 1  2  2     2.0228437007e-01
 1  2  3     0.0000000000e+00
 1  3  1     5.0503253374e-01
 1  3  2     0.0000000000e+00
 1  3  3    -4.6950584534e-01
 2  1  1     0.0000000000e+00
 2  1  2     2.5160611039e-01
 2  1  3     0.0000000000e+00
 2  2  1     2.0228437007e-01
 2  2  2     0.0000000000e+00
 2  2  3    -2.0228437007e-01
 2  3  1     0.0000000000e+00
 2  3  2    -2.5160611039e-01
 2  3  3     0.0000000000e+00
 3  1  1     4.6950584534e-01
 3  1  2     0.0000000000e+00
 3  1  3    -5.0503253374e-01
 3  2  1     0.0000000000e+00
 3  2  2    -2.0228437007e-01
 3  2  3     0.0000000000e+00
 3  3  1    -4.6950584534e-01
 3  3  2     0.0000000000e+00
 3  3  3     1.3498292124e-02

   29
2.0032955838e+00 0.0000000000e+00 -2.0032955838e+00
2.0032955838e+00 0.0000000000e+00 -2.0032955838e+00
     1      1      1
 1  1  1     1.3498292124e-02
 1  1  2     0.0000000000e+00
 1  1  3    -4.6950584534e-01
 1  2  1     0.0000000000e+00
 1  2  2    -2.5160611039e-01
 1  2  3     0.0000000000e+00
 1  3  1    -4.6950584534e-01
 1  3  2     0.0000000000e+00
 1  3  3     5.0503253374e-01
 2  1  1     0.0000000000e+00
 2  1  2    -2.0228437007e-01
 2  1  3     0.0000000000e+00
 2  2  1    -2.0228437007e-01
 2  2  2     0.0000000000e+00
 2  2  3     2.0228437007e-01
 2  3  1     0.0000000000e+00
 2  3  2     2.0228437007e-01
 2  3  3     0.0000000000e+00
 3  1  1    -5.0503253374e-01
 3  1  2     0.0000000000e+00
 3  1  3     4.6950584534e-01
 3  2  1     0.0000000000e+00
 3  2  2     2.5160611039e-01
 3  2  3     0.0000000000e+00
 3  3  1     4.6950584534e-01
 3  3  2     0.0000000000e+00
 3  3  3    -1.3498292124e-02

   30
2.0032955838e+00 0.0000000000e+00 -2.0032955838e+00
2.0032955838e+00 2.0032955838e+00 -2.0372382950e-16
     1      1      1
 1  1  1     1.2855516308e-03
 1  1  2    -2.5672499103e-03
 1  1  3    -3.8501546287e-03
 1  2  1     3.8501546287e-03
 1  2  2     2.5672499103e-03
 1  2  3     3.8566548925e-03
 1  3  1     2.5672499103e-03
 1  3  2     7.0705339696e-03
 1  3  3     2.5672499103e-03
 2  1  1    -4.5023840152e-03
 2  1  2    -3.8501546287e-03
 2  1  3     1.2855516308e-03
 2  2  1     4.5023840152e-03
 2  2  2    -1.2855516308e-03
 2  2  3     4.5023840152e-03
 2  3  1     3.8566548925e-03
 2  3  2     2.5672499103e-03
 2  3  3     3.8501546287e-03
 3  1  1     4.5023840152e-03
 3  1  2     3.8566548925e-03
 3  1  3     4.5023840152e-03
 3  2  1     1.2855516308e-03
 3  2  2    -3.8501546287e-03
 3  2  3    -4.5023840152e-03
 3  3  1    -3.8501546287e-03
 3  3  2    -2.5672499103e-03
 3  3  3     1.2855516308e-03

   31
2.0032955838e+00 0.0000000000e+00 -2.0032955838e+00
0.0000000000e+00 -2.0032955838e+00 -2.0032955838e+00
     1      1      1
 1  1  1    -1.2855516308e-03
 1  1  2     2.5672499103e-03
 1  1  3     3.8501546287e-03
 1  2  1     4.5023840152e-03
 1  2  2     3.8501546287e-03
 1  2  3    -1.2855516308e-03
 1  3  1    -4.5023840152e-03
 1  3  2    -3.8566548925e-03
 1  3  3    -4.5023840152e-03
 2  1  1    -3.8501546287e-03
 2  1  2    -2.5672499103e-03
 2  1  3    -3.8566548925e-03
 2  2  1    -4.5023840152e-03
 2  2  2     1.2855516308e-03
 2  2  3    -4.5023840152e-03
 2  3  1    -1.2855516308e-03
 2  3  2     3.8501546287e-03
 2  3  3     4.5023840152e-03
 3  1  1    -2.5672499103e-03
 3  1  2    -7.0705339696e-03
 3  1  3    -2.5672499103e-03
 3  2  1    -3.8566548925e-03
 3  2  2    -2.5672499103e-03
 3  2  3    -3.8501546287e-03
 3  3  1     3.8501546287e-03
 3  3  2     2.5672499103e-03
 3  3  3    -1.2855516308e-03

   32
2.0032955838e+00 0.0000000000e+00 -2.0032955838e+00
2.0032955838e+00 -2.0032955838e+00 -4.0065911677e+00
     1      1      2
 1  1  1     1.2855522156e-02
 1  1  2     0.0000000000e+00
 1  1  3     1.1137099845e-01
 1  2  1     0.0000000000e+00
 1  2  2    -3.6716150575e-02
 1  2  3     0.0000000000e+00
 1  3  1    -4.1170759978e-02
 1  3  2     0.0000000000e+00
 1  3  3    -4.1170759978e-02
 2  1  1     0.0000000000e+00
 2  1  2    -7.3203081815e-02
 2  1  3     0.0000000000e+00
 2  2  1    -5.4391781486e-02
 2  2  2     0.0000000000e+00
 2  2  3    -5.4391781486e-02
 2  3  1     0.0000000000e+00
 2  3  2    -3.6716150575e-02
 2  3  3     0.0000000000e+00
 3  1  1    -9.5143397841e-03
 3  1  2     0.0000000000e+00
 3  1  3    -9.5143397841e-03
 3  2  1     0.0000000000e+00