   0.97846E+00   0.66623E-02   0.22676E-02   0.22676E-02
   0.19569E+01   0.70876E-02   0.24529E-02   0.24529E-02
   0.29354E+01   0.86858E-02   0.30559E-02   0.30559E-02
   0.39138E+01   0.85338E-02   0.30334E-02   0.30334E-02
   0.48923E+01   0.10269E-01   0.36955E-02   0.36955E-02
   0.58708E+01   0.10947E-01   0.39765E-02   0.39765E-02
   0.68492E+01   0.11656E-01   0.42488E-02   0.42488E-02
   0.78277E+01   0.11994E-01   0.44009E-02   0.44009E-02
   0.88061E+01   0.13115E-01   0.48193E-02   0.48193E-02
   0.97846E+01   0.14036E-01   0.51807E-02   0.51807E-02
   0.10763E+02   0.15194E-01   0.56301E-02   0.56301E-02
   0.11742E+02   0.16751E-01   0.62077E-02   0.62077E-02
   0.12720E+02   0.17646E-01   0.65764E-02   0.65764E-02
   0.13698E+02   0.19396E-01   0.72359E-02   0.72359E-02
   0.14677E+02   0.20799E-01   0.77760E-02   0.77760E-02
   0.15655E+02   0.22084E-01   0.82949E-02   0.82949E-02
   0.16634E+02   0.24223E-01   0.90875E-02   0.90875E-02
   0.17612E+02   0.25712E-01   0.96691E-02   0.96691E-02
   0.18591E+02   0.27529E-01   0.10373E-01   0.10373E-01
   0.19569E+02   0.30083E-01   0.11299E-01   0.11299E-01
   0.20548E+02   0.31891E-01   0.11984E-01   0.11984E-01
   0.21526E+02   0.32942E-01   0.12391E-01   0.12391E-01
   0.22505E+02   0.33829E-01   0.12666E-01   0.12666E-01
   0.23483E+02   0.36494E-01   0.13599E-01   0.13599E-01
   0.24462E+02   0.40911E-01   0.15217E-01   0.15217E-01
   0.25440E+02   0.42252E-01   0.15620E-01   0.15620E-01
   0.26418E+02   0.48650E-01   0.17857E-01   0.17857E-01
   0.27397E+02   0.56742E-01   0.20670E-01   0.20670E-01
   0.28375E+02   0.67476E-01   0.24416E-01   0.24416E-01
   0.29354E+02   0.10676E+00   0.39039E-01   0.39039E-01
   0.30332E+02   0.81283E-01   0.28158E-01   0.28158E-01
   0.31311E+02   0.88923E-01   0.29554E-01   0.29554E-01
   0.32289E+02   0.12627E+00   0.40140E-01   0.40140E-01
   0.33268E+02   0.96954E-01   0.29651E-01   0.29651E-01
   0.34246E+02   0.57310E-01   0.14615E-01   0.14615E-01
   0.35225E+02   0.27532E+00   0.48332E-01   0.48332E-01
   0.36203E+02   0.20865E-01   0.50989E-02   0.50989E-02
   0.37182E+02   0.24078E-01   0.57545E-02   0.57545E-02
   0.38160E+02   0.31467E-01   0.74290E-02   0.74290E-02
   0.39138E+02   0.41751E-01   0.10039E-01   0.10039E-01
   0.40117E+02   0.52671E-01   0.13594E-01   0.13594E-01
   0.41095E+02   0.61475E-01   0.17153E-01   0.17153E-01
   0.42074E+02   0.11643E+00   0.33873E-01   0.33873E-01
   0.43052E+02   0.88154E-01   0.23454E-01   0.23454E-01
   0.44031E+02   0.60132E-01   0.11402E-01   0.11402E-01
   0.45009E+02   0.00000E+00   0.00000E+00   0.00000E+00
   0.45988E+02   0.00000E+00   0.00000E+00   0.00000E+00
   0.46966E+02   0.00000E+00   0.00000E+00   0.00000E+00
   0.47945E+02   0.00000E+00   0.00000E+00   0.00000E+00
   0.48923E+02   0.00000E+00   0.00000E+00   0.00000E+00
   0.49902E+02   0.00000E+00   0.00000E+00   0.00000E+00
   0.50880E+02   0.00000E+00   0.00000E+00   0.00000E+00
   0.51858E+02   0.00000E+00   0.00000E+00   0.00000E+00
   0.52837E+02   0.00000E+00   0.00000E+00   0.00000E+00
   0.53815E+02   0.00000E+00   0.00000E+00   0.00000E+00
   0.54794E+02   0.11454E-03   0.48397E-01   0.48397E-01
   0.55772E+02   0.35740E-03   0.57775E-01   0.57775E-01
   0.56751E+02   0.61765E-03   0.74155E-01   0.74155E-01
   0.57729E+02   0.11383E-02   0.10947E+00   0.10947E+00
   0.58708E+02   0.17042E-02   0.98933E-01   0.98933E-01
   0.59686E+02   0.21354E-02   0.77453E-01   0.77453E-01
   0.60665E+02   0.21083E-02   0.69135E-01   0.69135E-01
   0.61643E+02   0.16855E-02   0.33388E-01   0.33388E-01
   0.62622E+02   0.35724E-02   0.17552E+00   0.17552E+00
   0.63600E+02   0.80176E-03   0.23990E+00   0.23990E+00
   0.64578E+02   0.19717E-02   0.68776E-01   0.68776E-01
   0.65557E+02   0.85234E-02   0.13312E+00   0.13312E+00
   0.66535E+02   0.11683E-01   0.63566E-01   0.63566E-01
   0.67514E+02   0.95948E-02   0.32384E-01   0.32384E-01
   0.68492E+02   0.96111E-02   0.24271E-01   0.24271E-01
   0.69471E+02   0.91954E-02   0.18466E-01   0.18466E-01
   0.70449E+02   0.11074E+00   0.79406E-01   0.79406E-01
   0.71428E+02   0.30926E+00   0.19975E+00   0.19975E+00
   0.72406E+02   0.19580E+00   0.13734E+00   0.13734E+00
   0.73385E+02   0.10495E+00   0.81397E-01   0.81397E-01
   0.74363E+02   0.36078E-01   0.25022E-01   0.25022E-01
   0.75342E+02   0.58013E-01   0.67668E-01   0.67668E-01
   0.76320E+02   0.72257E-01   0.93172E-01   0.93172E-01
   0.77298E+02   0.33907E+00   0.61628E+00   0.61628E+00
   0.78277E+02   0.18077E-01   0.12134E-01   0.12134E-01
   0.79255E+02   0.16021E-01   0.10826E-01   0.10826E-01
   0.80234E+02   0.13894E-01   0.94595E-02   0.94595E-02
   0.81212E+02   0.14302E-01   0.98199E-02   0.98199E-02
   0.82191E+02   0.13211E-01   0.91592E-02   0.91592E-02
   0.83169E+02   0.11522E-01   0.80679E-02   0.80679E-02
   0.84148E+02   0.10794E-01   0.76375E-02   0.76375E-02
   0.85126E+02   0.10169E-01   0.72745E-02   0.72745E-02
   0.86105E+02   0.96114E-02   0.69559E-02   0.69559E-02
   0.87083E+02   0.10377E-01   0.75948E-02   0.75948E-02
   0.88061E+02   0.87821E-02   0.65007E-02   0.65007E-02
   0.89040E+02   0.00000E+00   0.00000E+00   0.00000E+00
   0.90018E+02   0.00000E+00   0.00000E+00   0.00000E+00
   0.90997E+02   0.00000E+00   0.00000E+00   0.00000E+00
   0.91975E+02   0.00000E+00   0.00000E+00   0.00000E+00
   0.92954E+02   0.00000E+00   0.00000E+00   0.00000E+00
   0.93932E+02   0.00000E+00   0.00000E+00   0.00000E+00
   0.94911E+02   0.00000E+00   0.00000E+00   0.00000E+00
   0.95889E+02   0.00000E+00   0.00000E+00   0.00000E+00
   0.96868E+02   0.00000E+00   0.00000E+00   0.00000E+00
   0.97846E+02   0.00000E+00   0.00000E+00   0.00000E+00
