   0.21559E+01   0.11656E-04   0.15997E-05
   0.43118E+01   0.70238E-04   0.96072E-05
   0.64677E+01   0.25663E-03   0.34859E-04
   0.86236E+01   0.44955E-03   0.59462E-04
   0.10780E+02   0.62258E-03   0.79434E-04
   0.12935E+02   0.10308E-02   0.12337E-03
   0.15091E+02   0.15696E-02   0.17757E-03
   0.17247E+02   0.18590E-02   0.19563E-03
   0.19403E+02   0.28800E-02   0.28061E-03
   0.21559E+02   0.38131E-02   0.34626E-03
   0.23715E+02   0.45958E-02   0.37667E-03
   0.25871E+02   0.62997E-02   0.46676E-03
   0.28027E+02   0.78344E-02   0.53442E-03
   0.30183E+02   0.98479E-02   0.60207E-03
   0.32339E+02   0.12232E-01   0.65977E-03
   0.34494E+02   0.15091E-01   0.71323E-03
   0.36650E+02   0.18714E-01   0.77997E-03
   0.38806E+02   0.23293E-01   0.82874E-03
   0.40962E+02   0.29266E-01   0.84368E-03
   0.43118E+02   0.37540E-01   0.87724E-03
   0.45274E+02   0.49485E-01   0.89469E-03
   0.47430E+02   0.71472E-01   0.83849E-03
   0.49586E+02   0.89171E-01   0.74356E-03
   0.51742E+02   0.89351E-01   0.69678E-03
   0.53898E+02   0.90830E-01   0.64198E-03
   0.56054E+02   0.91289E-01   0.61673E-03
   0.58209E+02   0.96631E-01   0.71354E-03
   0.60365E+02   0.69227E-01   0.71848E-03
   0.62521E+02   0.57018E-01   0.81281E-03
   0.64677E+02   0.48124E-01   0.90697E-03
   0.66833E+02   0.39728E-01   0.96570E-03
   0.68989E+02   0.26590E-01   0.94212E-03
   0.71145E+02   0.32153E-01   0.11758E-02
   0.73301E+02   0.10676E+00   0.32753E-02
   0.75457E+02   0.45215E-01   0.13637E-02
   0.77613E+02   0.41699E-01   0.12336E-02
   0.79769E+02   0.43895E-01   0.12640E-02
   0.81924E+02   0.31372E-01   0.92714E-03
   0.84080E+02   0.24627E-01   0.76674E-03
   0.86236E+02   0.18884E-01   0.58979E-03
   0.88392E+02   0.15731E-01   0.48619E-03
   0.90548E+02   0.12441E-01   0.36368E-03
   0.92704E+02   0.87728E-02   0.84116E-03
   0.94860E+02   0.64133E-02   0.12525E-02
   0.97016E+02   0.38418E-02   0.20679E-02
   0.99172E+02   0.24503E-03   0.23994E-02
   0.10133E+03   0.30139E-03   0.35062E-02
   0.10348E+03   0.28561E-03   0.38156E-02
   0.10564E+03   0.34064E-03   0.52247E-02
   0.10780E+03   0.33125E-03   0.57537E-02
   0.10995E+03   0.34109E-03   0.69717E-02
   0.11211E+03   0.36017E-03   0.81954E-02
   0.11426E+03   0.33565E-03   0.89636E-02
   0.11642E+03   0.37269E-03   0.11176E-01
   0.11857E+03   0.34665E-03   0.11854E-01
   0.12073E+03   0.37725E-03   0.14652E-01
   0.12289E+03   0.36933E-03   0.16212E-01
   0.12504E+03   0.40228E-03   0.19422E-01
   0.12720E+03   0.39887E-03   0.22860E-01
   0.12935E+03   0.46343E-03   0.27760E-01
   0.13151E+03   0.46637E-03   0.35249E-01
   0.13367E+03   0.52376E-03   0.44857E-01
   0.13582E+03   0.57747E-03   0.69666E-01
   0.13798E+03   0.62111E-03   0.74306E-01
   0.14013E+03   0.60998E-03   0.71594E-01
   0.14229E+03   0.58534E-03   0.70676E-01
   0.14445E+03   0.52129E-03   0.69522E-01
   0.14660E+03   0.45639E-03   0.53634E-01
   0.14876E+03   0.40763E-03   0.43621E-01
   0.15091E+03   0.37465E-03   0.37246E-01
   0.15307E+03   0.33495E-03   0.30972E-01
   0.15523E+03   0.32512E-03   0.28051E-01
   0.15738E+03   0.29132E-03   0.21796E-01
   0.15954E+03   0.28681E-03   0.21411E-01
   0.16169E+03   0.25724E-03   0.19611E-01
   0.16385E+03   0.22941E-03   0.17163E-01
   0.16600E+03   0.20013E-03   0.15430E-01
   0.16816E+03   0.14541E-03   0.10939E-01
   0.17032E+03   0.96865E-04   0.76229E-02
   0.17247E+03   0.59771E-04   0.45268E-02
   0.17463E+03   0.82108E-04   0.61346E-02
   0.17678E+03   0.15101E-03   0.11356E-01
   0.17894E+03   0.24426E-03   0.17867E-01
   0.18110E+03   0.30941E-03   0.21818E-01
   0.18325E+03   0.46145E-03   0.29690E-01
   0.18541E+03   0.66044E-03   0.37767E-01
   0.18756E+03   0.91124E-03   0.45571E-01
   0.18972E+03   0.13838E-02   0.57136E-01
   0.19188E+03   0.32635E-02   0.83096E-01
   0.19403E+03   0.59095E-02   0.99424E-01
   0.19619E+03   0.93789E-04   0.40734E-02
   0.19834E+03   0.00000E+00   0.00000E+00
   0.20050E+03   0.00000E+00   0.00000E+00
   0.20266E+03   0.00000E+00   0.00000E+00
   0.20481E+03   0.00000E+00   0.00000E+00
   0.20697E+03   0.00000E+00   0.00000E+00
   0.20912E+03   0.00000E+00   0.00000E+00
   0.21128E+03   0.00000E+00   0.00000E+00
   0.21343E+03   0.00000E+00   0.00000E+00
   0.21559E+03   0.00000E+00   0.00000E+00
