   0.73525E+00   0.44356E-02   0.37033E-02   0.37033E-02
   0.14705E+01   0.63966E-02   0.54283E-02   0.54283E-02
   0.22058E+01   0.63196E-02   0.54362E-02   0.54362E-02
   0.29410E+01   0.78526E-02   0.68509E-02   0.68509E-02
   0.36763E+01   0.79344E-02   0.69782E-02   0.69782E-02
   0.44115E+01   0.83623E-02   0.74457E-02   0.74457E-02
   0.51468E+01   0.96630E-02   0.86850E-02   0.86850E-02
   0.58820E+01   0.10468E-01   0.95204E-02   0.95204E-02
   0.66173E+01   0.11297E-01   0.10370E-01   0.10370E-01
   0.73525E+01   0.12300E-01   0.11369E-01   0.11369E-01
   0.80878E+01   0.12775E-01   0.11949E-01   0.11949E-01
   0.88230E+01   0.13853E-01   0.13055E-01   0.13055E-01
   0.95583E+01   0.14726E-01   0.13998E-01   0.13998E-01
   0.10294E+02   0.15310E-01   0.14731E-01   0.14731E-01
   0.11029E+02   0.16662E-01   0.16148E-01   0.16148E-01
   0.11764E+02   0.17721E-01   0.17342E-01   0.17342E-01
   0.12499E+02   0.18920E-01   0.18749E-01   0.18749E-01
   0.13235E+02   0.21336E-01   0.21306E-01   0.21306E-01
   0.13970E+02   0.24008E-01   0.24197E-01   0.24197E-01
   0.14705E+02   0.25159E-01   0.25727E-01   0.25727E-01
   0.15440E+02   0.24667E-01   0.25558E-01   0.25558E-01
   0.16176E+02   0.28667E-01   0.30005E-01   0.30005E-01
   0.16911E+02   0.29161E-01   0.30885E-01   0.30885E-01
   0.17646E+02   0.32773E-01   0.35228E-01   0.35228E-01
   0.18381E+02   0.37001E-01   0.40344E-01   0.40344E-01
   0.19117E+02   0.43253E-01   0.47830E-01   0.47830E-01
   0.19852E+02   0.63193E-01   0.71292E-01   0.71292E-01
   0.20587E+02   0.54412E-01   0.60741E-01   0.60741E-01
   0.21322E+02   0.48423E-01   0.53269E-01   0.53269E-01
   0.22058E+02   0.51541E-01   0.55977E-01   0.55977E-01
   0.22793E+02   0.56650E-01   0.59228E-01   0.59228E-01
   0.23528E+02   0.13333E+00   0.10473E+00   0.10473E+00
   0.24263E+02   0.90035E-01   0.81454E-01   0.81454E-01
   0.24999E+02   0.10145E+00   0.11431E+00   0.11431E+00
   0.25734E+02   0.25127E-01   0.20371E-01   0.20371E-01
   0.26469E+02   0.46909E-01   0.42213E-01   0.42213E-01
   0.27204E+02   0.57560E-01   0.56930E-01   0.56930E-01
   0.27940E+02   0.70053E-01   0.72168E-01   0.72168E-01
   0.28675E+02   0.55662E-01   0.54620E-01   0.54620E-01
   0.29410E+02   0.62525E-01   0.52092E-01   0.52092E-01
   0.30145E+02   0.00000E+00   0.00000E+00   0.00000E+00
   0.30881E+02   0.00000E+00   0.00000E+00   0.00000E+00
   0.31616E+02   0.00000E+00   0.00000E+00   0.00000E+00
   0.32351E+02   0.62823E-04   0.67944E-01   0.67944E-01
   0.33086E+02   0.19965E-03   0.84032E-01   0.84032E-01
   0.33822E+02   0.37914E-03   0.10633E+00   0.10633E+00
   0.34557E+02   0.67274E-03   0.15136E+00   0.15136E+00
   0.35292E+02   0.11294E-02   0.12130E+00   0.12130E+00
   0.36027E+02   0.12500E-02   0.98192E-01   0.98192E-01
   0.36763E+02   0.11755E-02   0.91214E-01   0.91214E-01
   0.37498E+02   0.86700E-03   0.45306E-01   0.45306E-01
   0.38233E+02   0.23502E-02   0.39434E+00   0.39434E+00
   0.38968E+02   0.69632E-03   0.29158E+00   0.29158E+00
   0.39704E+02   0.34296E-02   0.16204E+00   0.16204E+00
   0.40439E+02   0.65224E-02   0.20607E+00   0.20607E+00
   0.41174E+02   0.43072E-02   0.51411E-01   0.51411E-01
   0.41909E+02   0.34175E-02   0.37946E-01   0.37946E-01
   0.42645E+02   0.27485E-02   0.32074E-01   0.32074E-01
   0.43380E+02   0.20727E-02   0.28361E-01   0.28361E-01
   0.44115E+02   0.12510E-02   0.23224E-01   0.23224E-01
   0.44850E+02   0.55936E-03   0.20168E-01   0.20168E-01
   0.45586E+02   0.00000E+00   0.00000E+00   0.00000E+00
   0.46321E+02   0.00000E+00   0.00000E+00   0.00000E+00
   0.47056E+02   0.00000E+00   0.00000E+00   0.00000E+00
   0.47791E+02   0.00000E+00   0.00000E+00   0.00000E+00
   0.48527E+02   0.00000E+00   0.00000E+00   0.00000E+00
   0.49262E+02   0.00000E+00   0.00000E+00   0.00000E+00
   0.49997E+02   0.00000E+00   0.00000E+00   0.00000E+00
   0.50732E+02   0.00000E+00   0.00000E+00   0.00000E+00
   0.51468E+02   0.00000E+00   0.00000E+00   0.00000E+00
   0.52203E+02   0.00000E+00   0.00000E+00   0.00000E+00
   0.52938E+02   0.11088E+00   0.52882E-01   0.52882E-01
   0.53673E+02   0.52662E+00   0.15186E+00   0.15186E+00
   0.54409E+02   0.12498E+01   0.37022E+00   0.37022E+00
   0.55144E+02   0.15409E+00   0.47776E-01   0.47776E-01
   0.55879E+02   0.51564E+00   0.12930E+00   0.12930E+00
   0.56614E+02   0.40955E+00   0.78797E-01   0.78797E-01
   0.57350E+02   0.27646E+00   0.48740E-01   0.48740E-01
   0.58085E+02   0.86057E-01   0.18421E-01   0.18421E-01
   0.58820E+02   0.63137E-01   0.13744E-01   0.13744E-01
   0.59555E+02   0.57240E-01   0.12721E-01   0.12721E-01
   0.60291E+02   0.49844E-01   0.11364E-01   0.11364E-01
   0.61026E+02   0.43678E-01   0.10246E-01   0.10246E-01
   0.61761E+02   0.38479E-01   0.93091E-02   0.93091E-02
   0.62496E+02   0.34471E-01   0.86157E-02   0.86157E-02
   0.63232E+02   0.34071E-01   0.88082E-02   0.88082E-02
   0.63967E+02   0.33116E-01   0.88497E-02   0.88497E-02
   0.64702E+02   0.29536E-01   0.81735E-02   0.81735E-02
   0.65437E+02   0.26583E-01   0.76066E-02   0.76066E-02
   0.66173E+02   0.22558E-01   0.66613E-02   0.66613E-02
   0.66908E+02   0.00000E+00   0.00000E+00   0.00000E+00
   0.67643E+02   0.00000E+00   0.00000E+00   0.00000E+00
   0.68378E+02   0.00000E+00   0.00000E+00   0.00000E+00
   0.69114E+02   0.00000E+00   0.00000E+00   0.00000E+00
   0.69849E+02   0.00000E+00   0.00000E+00   0.00000E+00
   0.70584E+02   0.00000E+00   0.00000E+00   0.00000E+00
   0.71320E+02   0.00000E+00   0.00000E+00   0.00000E+00
   0.72055E+02   0.00000E+00   0.00000E+00   0.00000E+00
   0.72790E+02   0.00000E+00   0.00000E+00   0.00000E+00
   0.73525E+02   0.00000E+00   0.00000E+00   0.00000E+00
