   0.61189E+00   0.26399E-03   0.12708E-03
   0.12238E+01   0.91544E-03   0.43779E-03
   0.18357E+01   0.19526E-02   0.92093E-03
   0.24476E+01   0.25007E-02   0.11633E-02
   0.30594E+01   0.38181E-02   0.17477E-02
   0.36713E+01   0.43063E-02   0.19438E-02
   0.42832E+01   0.59515E-02   0.26438E-02
   0.48951E+01   0.64119E-02   0.28098E-02
   0.55070E+01   0.82403E-02   0.35474E-02
   0.61189E+01   0.91975E-02   0.39206E-02
   0.67308E+01   0.10959E-01   0.45706E-02
   0.73427E+01   0.12695E-01   0.52408E-02
   0.79546E+01   0.14524E-01   0.58664E-02
   0.85664E+01   0.17409E-01   0.69304E-02
   0.91783E+01   0.19195E-01   0.74598E-02
   0.97902E+01   0.23576E-01   0.89856E-02
   0.10402E+02   0.25952E-01   0.96299E-02
   0.11014E+02   0.31456E-01   0.11333E-01
   0.11626E+02   0.35137E-01   0.12243E-01
   0.12238E+02   0.42860E-01   0.14430E-01
   0.12850E+02   0.47123E-01   0.15040E-01
   0.13462E+02   0.58746E-01   0.18148E-01
   0.14073E+02   0.65627E-01   0.18806E-01
   0.14685E+02   0.78251E-01   0.21371E-01
   0.15297E+02   0.96372E-01   0.24464E-01
   0.15909E+02   0.11736E+00   0.27836E-01
   0.16521E+02   0.14669E+00   0.31603E-01
   0.17133E+02   0.19927E+00   0.38732E-01
   0.17745E+02   0.25004E+00   0.36138E-01
   0.18357E+02   0.32525E+00   0.32658E-01
   0.18969E+02   0.23932E+00   0.25317E-01
   0.19580E+02   0.17890E+00   0.20653E-01
   0.20192E+02   0.15256E+00   0.17995E-01
   0.20804E+02   0.13347E+00   0.15993E-01
   0.21416E+02   0.12212E+00   0.14908E-01
   0.22028E+02   0.11041E+00   0.14109E-01
   0.22640E+02   0.10010E+00   0.13534E-01
   0.23252E+02   0.93262E-01   0.13259E-01
   0.23864E+02   0.88852E-01   0.12722E-01
   0.24476E+02   0.80491E-01   0.12234E-01
   0.25087E+02   0.64473E-01   0.11201E-01
   0.25699E+02   0.57244E-01   0.12080E-01
   0.26311E+02   0.63023E-01   0.15081E-01
   0.26923E+02   0.90730E-01   0.23875E-01
   0.27535E+02   0.17905E+00   0.70989E-01
   0.28147E+02   0.23613E+00   0.48928E+00
   0.28759E+02   0.22797E+00   0.46208E+00
   0.29371E+02   0.25104E+00   0.51981E+00
   0.29983E+02   0.18293E+00   0.47495E+00
   0.30594E+02   0.11912E+00   0.29093E+00
   0.31206E+02   0.87151E-01   0.21846E+00
   0.31818E+02   0.55896E-01   0.15422E+00
   0.32430E+02   0.37150E-01   0.71979E-01
   0.33042E+02   0.27111E-01   0.30828E-01
   0.33654E+02   0.18766E-01   0.22096E-01
   0.34266E+02   0.74283E-02   0.38453E-01
   0.34878E+02   0.13083E-02   0.56418E-01
   0.35490E+02   0.18104E-02   0.56607E-01
   0.36101E+02   0.20459E-02   0.52630E-01
   0.36713E+02   0.23259E-02   0.52239E-01
   0.37325E+02   0.26718E-02   0.52673E-01
   0.37937E+02   0.30605E-02   0.52412E-01
   0.38549E+02   0.34830E-02   0.53256E-01
   0.39161E+02   0.39093E-02   0.53109E-01
   0.39773E+02   0.44126E-02   0.53263E-01
   0.40385E+02   0.49193E-02   0.54418E-01
   0.40997E+02   0.54252E-02   0.53380E-01
   0.41608E+02   0.59580E-02   0.54412E-01
   0.42220E+02   0.64952E-02   0.54789E-01
   0.42832E+02   0.70187E-02   0.54425E-01
   0.43444E+02   0.75386E-02   0.53983E-01
   0.44056E+02   0.80965E-02   0.54445E-01
   0.44668E+02   0.85924E-02   0.54285E-01
   0.45280E+02   0.91165E-02   0.54313E-01
   0.45892E+02   0.94526E-02   0.44738E-01
   0.46504E+02   0.97367E-02   0.40442E-01
   0.47115E+02   0.97580E-02   0.36119E-01
   0.47727E+02   0.95014E-02   0.32559E-01
   0.48339E+02   0.98320E-02   0.31455E-01
   0.48951E+02   0.91808E-02   0.27540E-01
   0.49563E+02   0.90158E-02   0.25756E-01
   0.50175E+02   0.91238E-02   0.24850E-01
   0.50787E+02   0.83648E-02   0.21795E-01
   0.51399E+02   0.76681E-02   0.19264E-01
   0.52011E+02   0.73534E-02   0.17883E-01
   0.52622E+02   0.69628E-02   0.16429E-01
   0.53234E+02   0.63181E-02   0.14501E-01
   0.53846E+02   0.52750E-02   0.11800E-01
   0.54458E+02   0.41410E-02   0.90194E-02
   0.55070E+02   0.30452E-02   0.64655E-02
   0.55682E+02   0.19512E-03   0.40303E-03
   0.56294E+02   0.00000E+00   0.00000E+00
   0.56906E+02   0.00000E+00   0.00000E+00
   0.57518E+02   0.00000E+00   0.00000E+00
   0.58129E+02   0.00000E+00   0.00000E+00
   0.58741E+02   0.00000E+00   0.00000E+00
   0.59353E+02   0.00000E+00   0.00000E+00
   0.59965E+02   0.00000E+00   0.00000E+00
   0.60577E+02   0.00000E+00   0.00000E+00
   0.61189E+02   0.00000E+00   0.00000E+00
