 2774

    1
0.0000000000e+00 0.0000000000e+00 0.0000000000e+00
0.0000000000e+00 0.0000000000e+00 0.0000000000e+00
     1      1      1
 1  1  1     0.0000000000e+00
 1  1  2     0.0000000000e+00
 1  1  3     0.0000000000e+00
 1  2  1     0.0000000000e+00
 1  2  2     0.0000000000e+00
 1  2  3     0.0000000000e+00
 1  3  1     0.0000000000e+00
 1  3  2     0.0000000000e+00
 1  3  3     0.0000000000e+00
 2  1  1     0.0000000000e+00
 2  1  2     0.0000000000e+00
 2  1  3     0.0000000000e+00
 2  2  1     0.0000000000e+00
 2  2  2     0.0000000000e+00
 2  2  3     0.0000000000e+00
 2  3  1     0.0000000000e+00
 2  3  2     0.0000000000e+00
 2  3  3     0.0000000000e+00
 3  1  1     0.0000000000e+00
 3  1  2     0.0000000000e+00
 3  1  3     0.0000000000e+00
 3  2  1     0.0000000000e+00
 3  2  2     0.0000000000e+00
 3  2  3     0.0000000000e+00
 3  3  1     0.0000000000e+00
 3  3  2     0.0000000000e+00
 3  3  3     0.0000000000e+00

    2
0.0000000000e+00 0.0000000000e+00 0.0000000000e+00
0.0000000000e+00 0.0000000000e+00 0.0000000000e+00
     1      1      2
 1  1  1     3.9182120554e-02
 1  1  2     3.8253239589e-02
 1  1  3     3.8253239589e-02
 1  2  1     1.7307910822e-02
 1  2  2    -1.7307910822e-02
 1  2  3    -5.7647860410e-02
 1  3  1     1.7307910822e-02
 1  3  2    -5.7647860410e-02
 1  3  3    -1.7307910822e-02
 2  1  1     1.7307910822e-02
 2  1  2    -1.7307910822e-02
 2  1  3    -5.7647860410e-02
 2  2  1    -3.8253239589e-02
 2  2  2    -3.9182120554e-02
 2  2  3     3.8253239589e-02
 2  3  1    -5.7647860410e-02
 2  3  2     1.7307910822e-02
 2  3  3     1.7307910822e-02
 3  1  1     1.7307910822e-02
 3  1  2    -5.7647860410e-02
 3  1  3    -1.7307910822e-02
 3  2  1    -5.7647860410e-02
 3  2  2     1.7307910822e-02
 3  2  3     1.7307910822e-02
 3  3  1    -3.8253239589e-02
 3  3  2     3.8253239589e-02
 3  3  3    -3.9182120554e-02

    3
0.0000000000e+00 0.0000000000e+00 0.0000000000e+00
-2.7096010710e+00 0.0000000000e+00 2.7096010710e+00
     1      1      1
 1  1  1    -3.2138790771e-03
 1  1  2     0.0000000000e+00
 1  1  3    -2.2260365132e-01
 1  2  1     0.0000000000e+00
 1  2  2    -9.9853797838e-02
 1  2  3     0.0000000000e+00
 1  3  1    -2.1930152759e-01
 1  3  2     0.0000000000e+00
 1  3  3     2.1930152759e-01
 2  1  1     0.0000000000e+00
 2  1  2    -9.9853797838e-02
 2  1  3     0.0000000000e+00
 2  2  1    -1.2145071436e-01
 2  2  2     0.0000000000e+00
 2  2  3     1.2145071436e-01
 2  3  1     0.0000000000e+00
 2  3  2     9.9853797838e-02
 2  3  3     0.0000000000e+00
 3  1  1    -2.1930152759e-01
 3  1  2     0.0000000000e+00
 3  1  3     2.1930152759e-01
 3  2  1     0.0000000000e+00
 3  2  2     9.9853797838e-02
 3  2  3     0.0000000000e+00
 3  3  1     2.2260365132e-01
 3  3  2     0.0000000000e+00
 3  3  3     3.2138790771e-03

    4
0.0000000000e+00 0.0000000000e+00 0.0000000000e+00
5.4192021419e+00 0.0000000000e+00 -5.4192021419e+00
     1      1      2
 1  1  1    -3.9182120554e-02
 1  1  2     3.8253239589e-02
 1  1  3    -3.8253239589e-02
 1  2  1     1.7307910822e-02
 1  2  2     1.7307910822e-02
 1  2  3    -5.7647860410e-02
 1  3  1    -1.7307910822e-02
 1  3  2    -5.7647860410e-02
 1  3  3     1.7307910822e-02
 2  1  1     1.7307910822e-02
 2  1  2     1.7307910822e-02
 2  1  3    -5.7647860410e-02
 2  2  1     3.8253239589e-02
 2  2  2    -3.9182120554e-02
 2  2  3    -3.8253239589e-02
 2  3  1    -5.7647860410e-02
 2  3  2    -1.7307910822e-02
 2  3  3     1.7307910822e-02
 3  1  1    -1.7307910822e-02
 3  1  2    -5.7647860410e-02
 3  1  3     1.7307910822e-02
 3  2  1    -5.7647860410e-02
 3  2  2    -1.7307910822e-02
 3  2  3     1.7307910822e-02
 3  3  1     3.8253239589e-02
 3  3  2     3.8253239589e-02
 3  3  3     3.9182120554e-02

    5
0.0000000000e+00 0.0000000000e+00 0.0000000000e+00
2.7096010710e+00 0.0000000000e+00 -2.7096010710e+00
     1      1      1
 1  1  1     3.2138790771e-03
 1  1  2     0.0000000000e+00
 1  1  3     2.2260365132e-01
 1  2  1     0.0000000000e+00
 1  2  2     9.9853797838e-02
 1  2  3     0.0000000000e+00
 1  3  1     2.1930152759e-01
 1  3  2     0.0000000000e+00
 1  3  3    -2.1930152759e-01
 2  1  1     0.0000000000e+00
 2  1  2     9.9853797838e-02
 2  1  3     0.0000000000e+00
 2  2  1     1.2145071436e-01
 2  2  2     0.0000000000e+00
 2  2  3    -1.2145071436e-01
 2  3  1     0.0000000000e+00
 2  3  2    -9.9853797838e-02
 2  3  3     0.0000000000e+00
 3  1  1     2.1930152759e-01
 3  1  2     0.0000000000e+00
 3  1  3    -2.1930152759e-01
 3  2  1     0.0000000000e+00
 3  2  2    -9.9853797838e-02
 3  2  3     0.0000000000e+00
 3  3  1    -2.2260365132e-01
 3  3  2     0.0000000000e+00
 3  3  3    -3.2138790771e-03

    6
0.0000000000e+00 0.0000000000e+00 0.0000000000e+00
2.7096010710e+00 0.0000000000e+00 -2.7096010710e+00
     1      1      2
 1  1  1     0.0000000000e+00
 1  1  2     7.1438768323e-02
 1  1  3     0.0000000000e+00
 1  2  1     8.0859128259e-02
 1  2  2     0.0000000000e+00
 1  2  3     0.0000000000e+00
 1  3  1     0.0000000000e+00
 1  3  2     0.0000000000e+00
 1  3  3     0.0000000000e+00
 2  1  1     8.0859128259e-02
 2  1  2     0.0000000000e+00
 2  1  3     0.0000000000e+00
 2  2  1     0.0000000000e+00
 2  2  2    -4.6674228734e+00
 2  2  3     0.0000000000e+00
 2  3  1     0.0000000000e+00
 2  3  2     0.0000000000e+00
 2  3  3     8.0859128259e-02
 3  1  1     0.0000000000e+00
 3  1  2     0.0000000000e+00
 3  1  3     0.0000000000e+00
 3  2  1     0.0000000000e+00
 3  2  2     0.0000000000e+00
 3  2  3     8.0859128259e-02
 3  3  1     0.0000000000e+00
 3  3  2     7.1438768323e-02
 3  3  3     0.0000000000e+00

    7
0.0000000000e+00 0.0000000000e+00 0.0000000000e+00
0.0000000000e+00 2.7096010710e+00 2.7096010710e+00
     1      1      1
 1  1  1     0.0000000000e+00
 1  1  2     1.2145071436e-01
 1  1  3     1.2145071436e-01
 1  2  1     9.9853797838e-02
 1  2  2     0.0000000000e+00
 1  2  3     0.0000000000e+00
 1  3  1     9.9853797838e-02
 1  3  2     0.0000000000e+00
 1  3  3     0.0000000000e+00
 2  1  1     9.9853797838e-02
 2  1  2     0.0000000000e+00
 2  1  3     0.0000000000e+00
 2  2  1     0.0000000000e+00
 2  2  2     3.2138790771e-03
 2  2  3    -2.2260365132e-01
 2  3  1     0.0000000000e+00
 2  3  2    -2.1930152759e-01
 2  3  3    -2.1930152759e-01
 3  1  1     9.9853797838e-02
 3  1  2     0.0000000000e+00
 3  1  3     0.0000000000e+00
 3  2  1     0.0000000000e+00
 3  2  2    -2.1930152759e-01
 3  2  3    -2.1930152759e-01
 3  3  1     0.0000000000e+00
 3  3  2    -2.2260365132e-01
 3  3  3     3.2138790771e-03

    8
0.0000000000e+00 0.0000000000e+00 0.0000000000e+00
0.0000000000e+00 -5.4192021419e+00 -5.4192021419e+00
     1      1      2
 1  1  1     3.9182120554e-02
 1  1  2    -3.8253239589e-02
 1  1  3    -3.8253239589e-02
 1  2  1    -1.7307910822e-02
 1  2  2    -1.7307910822e-02
 1  2  3    -5.7647860410e-02
 1  3  1    -1.7307910822e-02
 1  3  2    -5.7647860410e-02
 1  3  3    -1.7307910822e-02
 2  1  1    -1.7307910822e-02
 2  1  2    -1.7307910822e-02
 2  1  3    -5.7647860410e-02
 2  2  1    -3.8253239589e-02
 2  2  2     3.9182120554e-02
 2  2  3    -3.8253239589e-02
 2  3  1    -5.7647860410e-02
 2  3  2    -1.7307910822e-02
 2  3  3    -1.7307910822e-02
 3  1  1    -1.7307910822e-02
 3  1  2    -5.7647860410e-02
 3  1  3    -1.7307910822e-02
 3  2  1    -5.7647860410e-02
 3  2  2    -1.7307910822e-02
 3  2  3    -1.7307910822e-02
 3  3  1    -3.8253239589e-02
 3  3  2    -3.8253239589e-02
 3  3  3     3.9182120554e-02

    9
0.0000000000e+00 0.0000000000e+00 0.0000000000e+00
5.4192021419e+00 2.7096010710e+00 -2.7096010710e+00
     1      1      2
 1  1  1    -4.6247761322e-02
 1  1  2    -6.4535191488e-04
 1  1  3     0.0000000000e+00
 1  2  1    -3.3641663770e-02
 1  2  2     3.3641663770e-02
 1  2  3     0.0000000000e+00
 1  3  1     0.0000000000e+00
 1  3  2     0.0000000000e+00
 1  3  3     1.2805275481e-02
 2  1  1    -3.3641663770e-02
 2  1  2     3.3641663770e-02
 2  1  3     0.0000000000e+00
 2  2  1     6.4535191488e-04
 2  2  2     4.6247761322e-02
 2  2  3     0.0000000000e+00
 2  3  1     0.0000000000e+00
 2  3  2     0.0000000000e+00
 2  3  3    -1.2805275481e-02
 3  1  1     0.0000000000e+00
 3  1  2     0.0000000000e+00
 3  1  3     1.2805275481e-02
 3  2  1     0.0000000000e+00
 3  2  2     0.0000000000e+00
 3  2  3    -1.2805275481e-02
 3  3  1     9.6117395391e-03
 3  3  2    -9.6117395391e-03
 3  3  3     0.0000000000e+00

   10
0.0000000000e+00 0.0000000000e+00 0.0000000000e+00
2.7096010710e+00 2.7096010710e+00 -5.5511151231e-16
     1      1      1
 1  1  1     3.2138790771e-03
 1  1  2    -2.2260365132e-01
 1  1  3     0.0000000000e+00
 1  2  1    -2.1930152759e-01
 1  2  2    -2.1930152759e-01
 1  2  3     0.0000000000e+00
 1  3  1     0.0000000000e+00
 1  3  2     0.0000000000e+00
 1  3  3     9.9853797838e-02
 2  1  1    -2.1930152759e-01
 2  1  2    -2.1930152759e-01
 2  1  3     0.0000000000e+00
 2  2  1    -2.2260365132e-01
 2  2  2     3.2138790771e-03
 2  2  3     0.0000000000e+00
 2  3  1     0.0000000000e+00
 2  3  2     0.0000000000e+00
 2  3  3     9.9853797838e-02
 3  1  1     0.0000000000e+00
 3  1  2     0.0000000000e+00
 3  1  3     9.9853797838e-02
 3  2  1     0.0000000000e+00
 3  2  2     0.0000000000e+00
 3  2  3     9.9853797838e-02
 3  3  1     1.2145071436e-01
 3  3  2     1.2145071436e-01
 3  3  3     0.0000000000e+00

   11
0.0000000000e+00 0.0000000000e+00 0.0000000000e+00
2.7096010710e+00 -5.4192021419e+00 -8.1288032129e+00
     1      1      2
 1  1  1     0.0000000000e+00
 1  1  2    -9.6117395391e-03
 1  1  3     9.6117395391e-03
 1  2  1    -1.2805275481e-02
 1  2  2     0.0000000000e+00
 1  2  3     0.0000000000e+00
 1  3  1     1.2805275481e-02
 1  3  2     0.0000000000e+00
 1  3  3     0.0000000000e+00
 2  1  1    -1.2805275481e-02
 2  1  2     0.0000000000e+00
 2  1  3     0.0000000000e+00
 2  2  1     0.0000000000e+00
 2  2  2     4.6247761322e-02
 2  2  3     6.4535191488e-04
 2  3  1     0.0000000000e+00
 2  3  2     3.3641663770e-02
 2  3  3    -3.3641663770e-02
 3  1  1     1.2805275481e-02
 3  1  2     0.0000000000e+00
 3  1  3     0.0000000000e+00
 3  2  1     0.0000000000e+00
 3  2  2     3.3641663770e-02
 3  2  3    -3.3641663770e-02
 3  3  1     0.0000000000e+00
 3  3  2    -6.4535191488e-04
 3  3  3    -4.6247761322e-02

   12
0.0000000000e+00 0.0000000000e+00 0.0000000000e+00
0.0000000000e+00 -2.7096010710e+00 -2.7096010710e+00
     1      1      1
 1  1  1     0.0000000000e+00
 1  1  2    -1.2145071436e-01
 1  1  3    -1.2145071436e-01
 1  2  1    -9.9853797838e-02
 1  2  2     0.0000000000e+00
 1  2  3     0.0000000000e+00
 1  3  1    -9.9853797838e-02
 1  3  2     0.0000000000e+00
 1  3  3     0.0000000000e+00
 2  1  1    -9.9853797838e-02
 2  1  2     0.0000000000e+00
 2  1  3     0.0000000000e+00
 2  2  1     0.0000000000e+00
 2  2  2    -3.2138790771e-03
 2  2  3     2.2260365132e-01
 2  3  1     0.0000000000e+00
 2  3  2     2.1930152759e-01
 2  3  3     2.1930152759e-01
 3  1  1    -9.9853797838e-02
 3  1  2     0.0000000000e+00
 3  1  3     0.0000000000e+00
 3  2  1     0.0000000000e+00
 3  2  2     2.1930152759e-01
 3  2  3     2.1930152759e-01
 3  3  1     0.0000000000e+00
 3  3  2     2.2260365132e-01
 3  3  3    -3.2138790771e-03

   13
0.0000000000e+00 0.0000000000e+00 0.0000000000e+00
0.0000000000e+00 -2.7096010710e+00 -2.7096010710e+00
     1      1      2
 1  1  1     4.6674228734e+00
 1  1  2     0.0000000000e+00
 1  1  3     0.0000000000e+00
 1  2  1     0.0000000000e+00
 1  2  2    -8.0859128259e-02
 1  2  3     0.0000000000e+00
 1  3  1     0.0000000000e+00
 1  3  2     0.0000000000e+00
 1  3  3    -8.0859128259e-02
 2  1  1     0.0000000000e+00
 2  1  2    -8.0859128259e-02
 2  1  3     0.0000000000e+00
 2  2  1    -7.1438768323e-02
 2  2  2     0.0000000000e+00
 2  2  3     0.0000000000e+00
 2  3  1     0.0000000000e+00
 2  3  2     0.0000000000e+00
 2  3  3     0.0000000000e+00
 3  1  1     0.0000000000e+00
 3  1  2     0.0000000000e+00
 3  1  3    -8.0859128259e-02
 3  2  1     0.0000000000e+00
 3  2  2     0.0000000000e+00
 3  2  3     0.0000000000e+00
 3  3  1    -7.1438768323e-02
 3  3  2     0.0000000000e+00
 3  3  3     0.0000000000e+00

   14
0.0000000000e+00 0.0000000000e+00 0.0000000000e+00
-2.7096010710e+00 -2.7096010710e+00 -5.5511151231e-16
     1      1      1
 1  1  1    -3.2138790771e-03
 1  1  2     2.2260365132e-01
 1  1  3     0.0000000000e+00
 1  2  1     2.1930152759e-01
 1  2  2     2.1930152759e-01
 1  2  3     0.0000000000e+00
 1  3  1     0.0000000000e+00
 1  3  2     0.0000000000e+00
 1  3  3    -9.9853797838e-02
 2  1  1     2.1930152759e-01
 2  1  2     2.1930152759e-01
 2  1  3     0.0000000000e+00
 2  2  1     2.2260365132e-01
 2  2  2    -3.2138790771e-03
 2  2  3     0.0000000000e+00
 2  3  1     0.0000000000e+00
 2  3  2     0.0000000000e+00
 2  3  3    -9.9853797838e-02
 3  1  1     0.0000000000e+00
 3  1  2     0.0000000000e+00
 3  1  3    -9.9853797838e-02
 3  2  1     0.0000000000e+00
 3  2  2     0.0000000000e+00
 3  2  3    -9.9853797838e-02
 3  3  1    -1.2145071436e-01
 3  3  2    -1.2145071436e-01
 3  3  3     0.0000000000e+00

   15
0.0000000000e+00 0.0000000000e+00 0.0000000000e+00
5.4192021419e+00 -2.7096010710e+00 -8.1288032129e+00
     1      1      2
 1  1  1    -4.6247761322e-02
 1  1  2     0.0000000000e+00
 1  1  3     6.4535191488e-04
 1  2  1     0.0000000000e+00
 1  2  2     1.2805275481e-02
 1  2  3     0.0000000000e+00
 1  3  1     3.3641663770e-02
 1  3  2     0.0000000000e+00
 1  3  3     3.3641663770e-02
 2  1  1     0.0000000000e+00
 2  1  2     1.2805275481e-02
 2  1  3     0.0000000000e+00
 2  2  1     9.6117395391e-03
 2  2  2     0.0000000000e+00
 2  2  3     9.6117395391e-03
 2  3  1     0.0000000000e+00
 2  3  2     1.2805275481e-02
 2  3  3     0.0000000000e+00
 3  1  1     3.3641663770e-02
 3  1  2     0.0000000000e+00
 3  1  3     3.3641663770e-02
 3  2  1     0.0000000000e+00
 3  2  2     1.2805275481e-02
 3  2  3     0.0000000000e+00
 3  3  1     6.4535191488e-04
 3  3  2     0.0000000000e+00
 3  3  3    -4.6247761322e-02

   16
0.0000000000e+00 0.0000000000e+00 0.0000000000e+00
2.7096010710e+00 -2.7096010710e+00 -5.4192021419e+00
     1      1      2
 1  1  1     0.0000000000e+00
 1  1  2     0.0000000000e+00
 1  1  3    -7.1438768323e-02
 1  2  1     0.0000000000e+00
 1  2  2     0.0000000000e+00
 1  2  3     0.0000000000e+00
 1  3  1    -8.0859128259e-02
 1  3  2     0.0000000000e+00
 1  3  3     0.0000000000e+00
 2  1  1     0.0000000000e+00
 2  1  2     0.0000000000e+00
 2  1  3     0.0000000000e+00
 2  2  1     0.0000000000e+00
 2  2  2     0.0000000000e+00
 2  2  3    -7.1438768323e-02
 2  3  1     0.0000000000e+00
 2  3  2    -8.0859128259e-02
 2  3  3     0.0000000000e+00
 3  1  1    -8.0859128259e-02
 3  1  2     0.0000000000e+00
 3  1  3     0.0000000000e+00
 3  2  1     0.0000000000e+00
 3  2  2    -8.0859128259e-02
 3  2  3     0.0000000000e+00
 3  3  1     0.0000000000e+00
 3  3  2     0.0000000000e+00
 3  3  3     4.6674228734e+00

   17
0.0000000000e+00 0.0000000000e+00 0.0000000000e+00
-2.7096010710e+00 2.7096010710e+00 0.0000000000e+00
     1      1      1
 1  1  1    -3.2138790771e-03
 1  1  2    -2.2260365132e-01
 1  1  3     0.0000000000e+00
 1  2  1    -2.1930152759e-01
 1  2  2     2.1930152759e-01
 1  2  3     0.0000000000e+00
 1  3  1     0.0000000000e+00
 1  3  2     0.0000000000e+00
 1  3  3    -9.9853797838e-02
 2  1  1    -2.1930152759e-01
 2  1  2     2.1930152759e-01
 2  1  3     0.0000000000e+00
 2  2  1     2.2260365132e-01
 2  2  2     3.2138790771e-03
 2  2  3     0.0000000000e+00
 2  3  1     0.0000000000e+00
 2  3  2     0.0000000000e+00
 2  3  3     9.9853797838e-02
 3  1  1     0.0000000000e+00
 3  1  2     0.0000000000e+00
 3  1  3    -9.9853797838e-02
 3  2  1     0.0000000000e+00
 3  2  2     0.0000000000e+00
 3  2  3     9.9853797838e-02
 3  3  1    -1.2145071436e-01
 3  3  2     1.2145071436e-01
 3  3  3     0.0000000000e+00

   18
0.0000000000e+00 0.0000000000e+00 0.0000000000e+00
5.4192021419e+00 -5.4192021419e+00 0.0000000000e+00
     1      1      2
 1  1  1    -3.9182120554e-02
 1  1  2    -3.8253239589e-02
 1  1  3     3.8253239589e-02
 1  2  1    -1.7307910822e-02
 1  2  2     1.7307910822e-02
 1  2  3    -5.7647860410e-02
 1  3  1     1.7307910822e-02
 1  3  2    -5.7647860410e-02
 1  3  3     1.7307910822e-02
 2  1  1    -1.7307910822e-02
 2  1  2     1.7307910822e-02
 2  1  3    -5.7647860410e-02
 2  2  1     3.8253239589e-02
 2  2  2     3.9182120554e-02
 2  2  3     3.8253239589e-02
 2  3  1    -5.7647860410e-02
 2  3  2     1.7307910822e-02
 2  3  3    -1.7307910822e-02
 3  1  1     1.7307910822e-02
 3  1  2    -5.7647860410e-02
 3  1  3     1.7307910822e-02
 3  2  1    -5.7647860410e-02
 3  2  2     1.7307910822e-02
 3  2  3    -1.7307910822e-02
 3  3  1     3.8253239589e-02
 3  3  2    -3.8253239589e-02
 3  3  3    -3.9182120554e-02

   19
0.0000000000e+00 0.0000000000e+00 0.0000000000e+00
2.7096010710e+00 2.7096010710e+00 -5.4192021419e+00
     1      1      2
 1  1  1     0.0000000000e+00
 1  1  2    -9.6117395391e-03
 1  1  3    -9.6117395391e-03
 1  2  1    -1.2805275481e-02
 1  2  2     0.0000000000e+00
 1  2  3     0.0000000000e+00
 1  3  1    -1.2805275481e-02
 1  3  2     0.0000000000e+00
 1  3  3     0.0000000000e+00
 2  1  1    -1.2805275481e-02
 2  1  2     0.0000000000e+00
 2  1  3     0.0000000000e+00
 2  2  1     0.0000000000e+00
 2  2  2     4.6247761322e-02
 2  2  3    -6.4535191488e-04
 2  3  1     0.0000000000e+00
 2  3  2    -3.3641663770e-02
 2  3  3    -3.3641663770e-02
 3  1  1    -1.2805275481e-02
 3  1  2     0.0000000000e+00
 3  1  3     0.0000000000e+00
 3  2  1     0.0000000000e+00
 3  2  2    -3.3641663770e-02
 3  2  3    -3.3641663770e-02
 3  3  1     0.0000000000e+00
 3  3  2    -6.4535191488e-04
 3  3  3     4.6247761322e-02

   20
0.0000000000e+00 0.0000000000e+00 0.0000000000e+00
5.5511151231e-16 2.7096010710e+00 -2.7096010710e+00
     1      1      1
 1  1  1     0.0000000000e+00
 1  1  2     1.2145071436e-01
 1  1  3    -1.2145071436e-01
 1  2  1     9.9853797838e-02
 1  2  2     0.0000000000e+00
 1  2  3     0.0000000000e+00
 1  3  1    -9.9853797838e-02
 1  3  2     0.0000000000e+00
 1  3  3     0.0000000000e+00
 2  1  1     9.9853797838e-02
 2  1  2     0.0000000000e+00
 2  1  3     0.0000000000e+00
 2  2  1     0.0000000000e+00
 2  2  2     3.2138790771e-03
 2  2  3     2.2260365132e-01
 2  3  1     0.0000000000e+00
 2  3  2     2.1930152759e-01
 2  3  3    -2.1930152759e-01
 3  1  1    -9.9853797838e-02
 3  1  2     0.0000000000e+00
 3  1  3     0.0000000000e+00
 3  2  1     0.0000000000e+00
 3  2  2     2.1930152759e-01
 3  2  3    -2.1930152759e-01
 3  3  1     0.0000000000e+00
 3  3  2    -2.2260365132e-01
 3  3  3    -3.2138790771e-03

   21
0.0000000000e+00 0.0000000000e+00 0.0000000000e+00
8.1288032129e+00 -5.4192021419e+00 -2.7096010710e+00
     1      1      2
 1  1  1     4.6247761322e-02
 1  1  2    -6.4535191488e-04
 1  1  3     0.0000000000e+00
 1  2  1    -3.3641663770e-02
 1  2  2    -3.3641663770e-02
 1  2  3     0.0000000000e+00
 1  3  1     0.0000000000e+00
 1  3  2     0.0000000000e+00
 1  3  3    -1.2805275481e-02
 2  1  1    -3.3641663770e-02
 2  1  2    -3.3641663770e-02
 2  1  3     0.0000000000e+00
 2  2  1    -6.4535191488e-04
 2  2  2     4.6247761322e-02
 2  2  3     0.0000000000e+00
 2  3  1     0.0000000000e+00
 2  3  2     0.0000000000e+00
 2  3  3    -1.2805275481e-02
 3  1  1     0.0000000000e+00
 3  1  2     0.0000000000e+00
 3  1  3    -1.2805275481e-02
 3  2  1     0.0000000000e+00
 3  2  2     0.0000000000e+00
 3  2  3    -1.2805275481e-02
 3  3  1    -9.6117395391e-03
 3  3  2    -9.6117395391e-03
 3  3  3     0.0000000000e+00

   22
0.0000000000e+00 0.0000000000e+00 0.0000000000e+00
-2.7096010710e+00 -2.7096010710e+00 -5.4192021419e+00
     1      1      2
 1  1  1    -4.6247761322e-02
 1  1  2     0.0000000000e+00
 1  1  3    -6.4535191488e-04
 1  2  1     0.0000000000e+00
 1  2  2     1.2805275481e-02
 1  2  3     0.0000000000e+00
 1  3  1    -3.3641663770e-02
 1  3  2     0.0000000000e+00
 1  3  3     3.3641663770e-02
 2  1  1     0.0000000000e+00
 2  1  2     1.2805275481e-02
 2  1  3     0.0000000000e+00
 2  2  1     9.6117395391e-03
 2  2  2     0.0000000000e+00
 2  2  3    -9.6117395391e-03
 2  3  1     0.0000000000e+00
 2  3  2    -1.2805275481e-02
 2  3  3     0.0000000000e+00
 3  1  1    -3.3641663770e-02
 3  1  2     0.0000000000e+00
 3  1  3     3.3641663770e-02
 3  2  1     0.0000000000e+00
 3  2  2    -1.2805275481e-02
 3  2  3     0.0000000000e+00
 3  3  1     6.4535191488e-04
 3  3  2     0.0000000000e+00
 3  3  3     4.6247761322e-02

   23
0.0000000000e+00 0.0000000000e+00 0.0000000000e+00
5.5511151231e-16 5.4192021419e+00 -5.5511151231e-16
     1      1      1
 1  1  1     0.0000000000e+00
 1  1  2     4.6773849187e-02
 1  1  3     0.0000000000e+00
 1  2  1     3.2854186340e-02
 1  2  2     0.0000000000e+00
 1  2  3     0.0000000000e+00
 1  3  1     0.0000000000e+00
 1  3  2     0.0000000000e+00
 1  3  3     0.0000000000e+00
 2  1  1     3.2854186340e-02
 2  1  2     0.0000000000e+00
 2  1  3     0.0000000000e+00
 2  2  1     0.0000000000e+00
 2  2  2    -9.0631389974e-02
 2  2  3     0.0000000000e+00
 2  3  1     0.0000000000e+00
 2  3  2     0.0000000000e+00
 2  3  3     3.2854186340e-02
 3  1  1     0.0000000000e+00
 3  1  2     0.0000000000e+00
 3  1  3     0.0000000000e+00
 3  2  1     0.0000000000e+00
 3  2  2     0.0000000000e+00
 3  2  3     3.2854186340e-02
 3  3  1     0.0000000000e+00
 3  3  2     4.6773849187e-02
 3  3  3     0.0000000000e+00

   24
0.0000000000e+00 0.0000000000e+00 0.0000000000e+00
-1.1102230246e-15 -2.7096010710e+00 -8.1288032129e+00
     1      1      2
 1  1  1     4.6247761322e-02
 1  1  2     0.0000000000e+00
 1  1  3     6.4535191488e-04
 1  2  1     0.0000000000e+00
 1  2  2    -1.2805275481e-02
 1  2  3     0.0000000000e+00
 1  3  1     3.3641663770e-02
 1  3  2     0.0000000000e+00
 1  3  3    -3.3641663770e-02
 2  1  1     0.0000000000e+00
 2  1  2    -1.2805275481e-02
 2  1  3     0.0000000000e+00
 2  2  1    -9.6117395391e-03
 2  2  2     0.0000000000e+00
 2  2  3     9.6117395391e-03
 2  3  1     0.0000000000e+00
 2  3  2     1.2805275481e-02
 2  3  3     0.0000000000e+00
 3  1  1     3.3641663770e-02
 3  1  2     0.0000000000e+00
 3  1  3    -3.3641663770e-02
 3  2  1     0.0000000000e+00
 3  2  2     1.2805275481e-02
 3  2  3     0.0000000000e+00
 3  3  1    -6.4535191488e-04
 3  3  2     0.0000000000e+00
 3  3  3    -4.6247761322e-02

   25
0.0000000000e+00 0.0000000000e+00 0.0000000000e+00
-2.7096010710e+00 -5.5511151231e-16 -2.7096010710e+00
     1      1      1
 1  1  1    -3.2138790771e-03
 1  1  2     0.0000000000e+00
 1  1  3     2.2260365132e-01
 1  2  1     0.0000000000e+00
 1  2  2    -9.9853797838e-02
 1  2  3     0.0000000000e+00
 1  3  1     2.1930152759e-01
 1  3  2     0.0000000000e+00
 1  3  3     2.1930152759e-01
 2  1  1     0.0000000000e+00
 2  1  2    -9.9853797838e-02
 2  1  3     0.0000000000e+00
 2  2  1    -1.2145071436e-01
 2  2  2     0.0000000000e+00
 2  2  3    -1.2145071436e-01
 2  3  1     0.0000000000e+00
 2  3  2    -9.9853797838e-02
 2  3  3     0.0000000000e+00
 3  1  1     2.1930152759e-01
 3  1  2     0.0000000000e+00
 3  1  3     2.1930152759e-01
 3  2  1     0.0000000000e+00
 3  2  2    -9.9853797838e-02
 3  2  3     0.0000000000e+00
 3  3  1     2.2260365132e-01
 3  3  2     0.0000000000e+00
 3  3  3    -3.2138790771e-03

   26
0.0000000000e+00 0.0000000000e+00 0.0000000000e+00
5.4192021419e+00 -8.1288032129e+00 -2.7096010710e+00
     1      1      2
 1  1  1    -4.6247761322e-02
 1  1  2     6.4535191488e-04
 1  1  3     0.0000000000e+00
 1  2  1     3.3641663770e-02
 1  2  2     3.3641663770e-02
 1  2  3     0.0000000000e+00
 1  3  1     0.0000000000e+00
 1  3  2     0.0000000000e+00
 1  3  3     1.2805275481e-02
 2  1  1     3.3641663770e-02
 2  1  2     3.3641663770e-02
 2  1  3     0.0000000000e+00
 2  2  1     6.4535191488e-04
 2  2  2    -4.6247761322e-02
 2  2  3     0.0000000000e+00
 2  3  1     0.0000000000e+00
 2  3  2     0.0000000000e+00
 2  3  3     1.2805275481e-02
 3  1  1     0.0000000000e+00
 3  1  2     0.0000000000e+00
 3  1  3     1.2805275481e-02
 3  2  1     0.0000000000e+00
 3  2  2     0.0000000000e+00
 3  2  3     1.2805275481e-02
 3  3  1     9.6117395391e-03
 3  3  2     9.6117395391e-03
 3  3  3     0.0000000000e+00

   27
0.0000000000e+00 0.0000000000e+00 0.0000000000e+00
-5.4192021419e+00 -5.5511151231e-16 -5.5511151231e-16
     1      1      1
 1  1  1     9.0631389974e-02
 1  1  2     0.0000000000e+00
 1  1  3     0.0000000000e+00
 1  2  1     0.0000000000e+00
 1  2  2    -3.2854186340e-02
 1  2  3     0.0000000000e+00
 1  3  1     0.0000000000e+00
 1  3  2     0.0000000000e+00
 1  3  3    -3.2854186340e-02
 2  1  1     0.0000000000e+00
 2  1  2    -3.2854186340e-02
 2  1  3     0.0000000000e+00
 2  2  1    -4.6773849187e-02
 2  2  2     0.0000000000e+00
 2  2  3     0.0000000000e+00
 2  3  1     0.0000000000e+00
 2  3  2     0.0000000000e+00
 2  3  3     0.0000000000e+00
 3  1  1     0.0000000000e+00
 3  1  2     0.0000000000e+00
 3  1  3    -3.2854186340e-02
 3  2  1     0.0000000000e+00
 3  2  2     0.0000000000e+00
 3  2  3     0.0000000000e+00
 3  3  1    -4.6773849187e-02
 3  3  2     0.0000000000e+00
 3  3  3     0.0000000000e+00

   28
0.0000000000e+00 0.0000000000e+00 0.0000000000e+00
2.7096010710e+00 1.1102230246e-15 -8.1288032129e+00
     1      1      2
 1  1  1     0.0000000000e+00
 1  1  2     9.6117395391e-03
 1  1  3     9.6117395391e-03
 1  2  1     1.2805275481e-02
 1  2  2     0.0000000000e+00
 1  2  3     0.0000000000e+00
 1  3  1     1.2805275481e-02
 1  3  2     0.0000000000e+00
 1  3  3     0.0000000000e+00
 2  1  1     1.2805275481e-02
 2  1  2     0.0000000000e+00
 2  1  3     0.0000000000e+00
 2  2  1     0.0000000000e+00
 2  2  2    -4.6247761322e-02
 2  2  3     6.4535191488e-04
 2  3  1     0.0000000000e+00
 2  3  2     3.3641663770e-02
 2  3  3     3.3641663770e-02
 3  1  1     1.2805275481e-02
 3  1  2     0.0000000000e+00
 3  1  3     0.0000000000e+00
 3  2  1     0.0000000000e+00
 3  2  2     3.3641663770e-02
 3  2  3     3.3641663770e-02
 3  3  1     0.0000000000e+00
 3  3  2     6.4535191488e-04
 3  3  3    -4.6247761322e-02

   29
0.0000000000e+00 0.0000000000e+00 0.0000000000e+00
5.5511151231e-16 -5.5511151231e-16 -5.4192021419e+00
     1      1      1
 1  1  1     0.0000000000e+00
 1  1  2     0.0000000000e+00
 1  1  3    -4.6773849187e-02
 1  2  1     0.0000000000e+00
 1  2  2     0.0000000000e+00
 1  2  3     0.0000000000e+00
 1  3  1    -3.2854186340e-02
 1  3  2     0.0000000000e+00
 1  3  3     0.0000000000e+00
 2  1  1     0.0000000000e+00
 2  1  2     0.0000000000e+00
 2  1  3     0.0000000000e+00
 2  2  1     0.0000000000e+00
 2  2  2     0.0000000000e+00
 2  2  3    -4.6773849187e-02
 2  3  1     0.0000000000e+00
 2  3  2    -3.2854186340e-02
 2  3  3     0.0000000000e+00
 3  1  1    -3.2854186340e-02
 3  1  2     0.0000000000e+00
 3  1  3     0.0000000000e+00
 3  2  1     0.0000000000e+00
 3  2  2    -3.2854186340e-02
 3  2  3     0.0000000000e+00
 3  3  1     0.0000000000e+00
 3  3  2     0.0000000000e+00
 3  3  3     9.0631389974e-02

   30
0.0000000000e+00 0.0000000000e+00 0.0000000000e+00
-1.1102230246e-15 1.1102230246e-15 -5.4192021419e+00
     1      1      2
 1  1  1     3.9182120554e-02
 1  1  2     3.8253239589e-02
 1  1  3    -3.8253239589e-02
 1  2  1     1.7307910822e-02
 1  2  2    -1.7307910822e-02
 1  2  3     5.7647860410e-02
 1  3  1    -1.7307910822e-02
 1  3  2     5.7647860410e-02
 1  3  3    -1.7307910822e-02
 2  1  1     1.7307910822e-02
 2  1  2    -1.7307910822e-02
 2  1  3     5.7647860410e-02
 2  2  1    -3.8253239589e-02
 2  2  2    -3.9182120554e-02
 2  2  3    -3.8253239589e-02
 2  3  1     5.7647860410e-02
 2  3  2    -1.7307910822e-02
 2  3  3     1.7307910822e-02
 3  1  1    -1.7307910822e-02
 3  1  2     5.7647860410e-02
 3  1  3    -1.7307910822e-02
 3  2  1     5.7647860410e-02
 3  2  2    -1.7307910822e-02
 3  2  3     1.7307910822e-02
 3  3  1    -3.8253239589e-02
 3  3  2     3.8253239589e-02
 3  3  3     3.9182120554e-02

   31
0.0000000000e+00 0.0000000000e+00 0.0000000000e+00
2.7096010710e+00 -2.7096010710e+00 0.0000000000e+00
     1      1      1
 1  1  1     3.2138790771e-03
 1  1  2     2.2260365132e-01
 1  1  3     0.0000000000e+00
 1  2  1     2.1930152759e-01
 1  2  2    -2.1930152759e-01
 1  2  3     0.0000000000e+00
 1  3  1     0.0000000000e+00
 1  3  2     0.0000000000e+00
 1  3  3     9.9853797838e-02
 2  1  1     2.1930152759e-01
 2  1  2    -2.1930152759e-01
 2  1  3     0.0000000000e+00
 2  2  1    -2.2260365132e-01
 2  2  2    -3.2138790771e-03
 2  2  3     0.0000000000e+00
 2  3  1     0.0000000000e+00
 2  3  2     0.0000000000e+00
 2  3  3    -9.9853797838e-02
 3  1  1     0.0000000000e+00
 3  1  2     0.0000000000e+00
 3  1  3     9.9853797838e-02
 3  2  1     0.0000000000e+00
 3  2  2     0.0000000000e+00
 3  2  3    -9.9853797838e-02
 3  3  1     1.2145071436e-01
 3  3  2    -1.2145071436e-01
 3  3  3     0.0000000000e+00

   32
0.0000000000e+00 0.0000000000e+00 0.0000000000e+00
2.7096010710e+00 -2.7096010710e+00 0.0000000000e+00
     1      1      2
 1  1  1     0.0000000000e+00
 1  1  2     0.0000000000e+00
 1  1  3     7.1438768323e-02
 1  2  1     0.0000000000e+00
 1  2  2     0.0000000000e+00
 1  2  3     0.0000000000e+00
 1  3  1     8.0859128259e-02
 1  3  2     0.0000000000e+00
 1  3  3     0.0000000000e+00
 2  1  1     0.0000000000e+00
 2  1  2     0.0000000000e+00
 2  1  3     0.0000000000e+00
 2  2  1     0.0000000000e+00
 2  2  2     0.0000000000e+00
 2  2  3     7.1438768323e-02
 2  3  1     0.0000000000e+00
 2  3  2     8.0859128259e-02
 2  3  3     0.0000000000e+00
 3  1  1     8.0859128259e-02
 3  1  2     0.0000000000e+00
 3  1  3     0.0000000000e+00
 3  2  1     0.0000000000e+00