   0.33753E+01   0.47808E-03   0.47808E-03   0.47774E-03   0.47774E-03
   0.67505E+01   0.12044E-02   0.12044E-02   0.12026E-02   0.12026E-02
   0.10126E+02   0.19947E-02   0.19947E-02   0.19900E-02   0.19900E-02
   0.13501E+02   0.27926E-02   0.27926E-02   0.27841E-02   0.27841E-02
   0.16876E+02   0.42671E-02   0.42671E-02   0.42491E-02   0.42491E-02
   0.20252E+02   0.62034E-02   0.62034E-02   0.61689E-02   0.61689E-02
   0.23627E+02   0.67985E-02   0.67985E-02   0.67680E-02   0.67679E-02
   0.27002E+02   0.59929E-02   0.59929E-02   0.59751E-02   0.59751E-02
   0.30377E+02   0.58196E-02   0.58196E-02   0.58079E-02   0.58079E-02
   0.33753E+02   0.58028E-02   0.58028E-02   0.57956E-02   0.57956E-02
   0.37128E+02   0.58361E-02   0.58361E-02   0.58328E-02   0.58328E-02
   0.40503E+02   0.59262E-02   0.59262E-02   0.59265E-02   0.59265E-02
   0.43879E+02   0.61044E-02   0.61044E-02   0.61082E-02   0.61082E-02
   0.47254E+02   0.62877E-02   0.62877E-02   0.62952E-02   0.62952E-02
   0.50629E+02   0.64887E-02   0.64887E-02   0.65001E-02   0.65001E-02
   0.54004E+02   0.67212E-02   0.67212E-02   0.67367E-02   0.67367E-02
   0.57380E+02   0.69708E-02   0.69708E-02   0.69909E-02   0.69909E-02
   0.60755E+02   0.72900E-02   0.72900E-02   0.73152E-02   0.73152E-02
   0.64130E+02   0.76207E-02   0.76207E-02   0.76519E-02   0.76519E-02
   0.67505E+02   0.79707E-02   0.79707E-02   0.80088E-02   0.80088E-02
   0.70881E+02   0.84177E-02   0.84177E-02   0.84643E-02   0.84643E-02
   0.74256E+02   0.89078E-02   0.89078E-02   0.89652E-02   0.89652E-02
   0.77631E+02   0.95237E-02   0.95237E-02   0.95952E-02   0.95952E-02
   0.81007E+02   0.10301E-01   0.10301E-01   0.10393E-01   0.10393E-01
   0.84382E+02   0.11469E-01   0.11469E-01   0.11592E-01   0.11592E-01
   0.87757E+02   0.13868E-01   0.13868E-01   0.14052E-01   0.14052E-01
   0.91132E+02   0.17061E-01   0.17061E-01   0.17560E-01   0.17560E-01
   0.94508E+02   0.75184E-02   0.75184E-02   0.76080E-02   0.76080E-02
   0.97883E+02   0.59710E-02   0.59710E-02   0.60321E-02   0.60321E-02
   0.10126E+03   0.53839E-02   0.53839E-02   0.53798E-02   0.53798E-02
   0.10463E+03   0.67094E-02   0.67094E-02   0.66164E-02   0.66164E-02
   0.10801E+03   0.87659E-02   0.87659E-02   0.86561E-02   0.86561E-02
   0.11138E+03   0.10986E-01   0.10986E-01   0.10855E-01   0.10855E-01
   0.11476E+03   0.15218E-01   0.15218E-01   0.15032E-01   0.15032E-01
   0.11813E+03   0.22955E-01   0.22955E-01   0.22598E-01   0.22598E-01
   0.12151E+03   0.18454E-01   0.18454E-01   0.18212E-01   0.18212E-01
   0.12489E+03   0.15944E-01   0.15944E-01   0.15768E-01   0.15768E-01
   0.12826E+03   0.14894E-01   0.14894E-01   0.14753E-01   0.14753E-01
   0.13164E+03   0.14135E-01   0.14135E-01   0.14018E-01   0.14018E-01
   0.13501E+03   0.13672E-01   0.13672E-01   0.13573E-01   0.13573E-01
   0.13839E+03   0.13398E-01   0.13398E-01   0.13314E-01   0.13314E-01
   0.14176E+03   0.13317E-01   0.13317E-01   0.13244E-01   0.13244E-01
   0.14514E+03   0.13283E-01   0.13283E-01   0.13223E-01   0.13223E-01
   0.14851E+03   0.13441E-01   0.13441E-01   0.13393E-01   0.13393E-01
   0.15189E+03   0.13814E-01   0.13814E-01   0.13778E-01   0.13778E-01
   0.15526E+03   0.14296E-01   0.14296E-01   0.14276E-01   0.14276E-01
   0.15864E+03   0.14987E-01   0.14987E-01   0.14984E-01   0.14984E-01
   0.16201E+03   0.15884E-01   0.15884E-01   0.15906E-01   0.15906E-01
   0.16539E+03   0.16889E-01   0.16889E-01   0.16942E-01   0.16942E-01
   0.16876E+03   0.47723E-02   0.47723E-02   0.47532E-02   0.47532E-02
   0.17214E+03   0.47670E-02   0.47670E-02   0.47488E-02   0.47488E-02
   0.17551E+03   0.46528E-02   0.46528E-02   0.46373E-02   0.46373E-02
   0.17889E+03   0.46172E-02   0.46172E-02   0.46035E-02   0.46035E-02
   0.18226E+03   0.45879E-02   0.45879E-02   0.45766E-02   0.45766E-02
   0.18564E+03   0.46841E-02   0.46841E-02   0.46736E-02   0.46736E-02
   0.18902E+03   0.46325E-02   0.46325E-02   0.46254E-02   0.46254E-02
   0.19239E+03   0.33098E-02   0.33098E-02   0.33232E-02   0.33232E-02
   0.19577E+03   0.34705E-02   0.34705E-02   0.34859E-02   0.34859E-02
   0.19914E+03   0.36490E-02   0.36490E-02   0.36669E-02   0.36669E-02
   0.20252E+03   0.38656E-02   0.38656E-02   0.38865E-02   0.38865E-02
   0.20589E+03   0.41125E-02   0.41125E-02   0.41373E-02   0.41373E-02
   0.20927E+03   0.43799E-02   0.43799E-02   0.44096E-02   0.44096E-02
   0.21264E+03   0.46745E-02   0.46745E-02   0.47107E-02   0.47107E-02
   0.21602E+03   0.50438E-02   0.50438E-02   0.50890E-02   0.50890E-02
   0.21939E+03   0.54424E-02   0.54424E-02   0.55000E-02   0.55000E-02
   0.22277E+03   0.58456E-02   0.58456E-02   0.59212E-02   0.59212E-02
   0.22614E+03   0.64162E-02   0.64162E-02   0.65250E-02   0.65250E-02
   0.22952E+03   0.74765E-02   0.74765E-02   0.76750E-02   0.76750E-02
   0.23289E+03   0.59325E-02   0.59325E-02   0.60575E-02   0.60575E-02
   0.23627E+03   0.56761E-02   0.56761E-02   0.57517E-02   0.57517E-02
   0.23964E+03   0.57593E-02   0.57593E-02   0.58560E-02   0.58560E-02
   0.24302E+03   0.57554E-02   0.57554E-02   0.58564E-02   0.58564E-02
   0.24639E+03   0.57644E-02   0.57644E-02   0.58305E-02   0.58305E-02
   0.24977E+03   0.55505E-02   0.55505E-02   0.56310E-02   0.56310E-02
   0.25315E+03   0.57798E-02   0.57798E-02   0.57908E-02   0.57908E-02
   0.25652E+03   0.72161E-02   0.72161E-02   0.68082E-02   0.68082E-02
   0.25990E+03   0.61915E-02   0.61915E-02   0.59422E-02   0.59422E-02
   0.26327E+03   0.27891E-01   0.27891E-01   0.28114E-01   0.28114E-01
   0.26665E+03   0.27389E-01   0.27389E-01   0.27377E-01   0.27377E-01
   0.27002E+03   0.48731E-01   0.48731E-01   0.49025E-01   0.49025E-01
   0.27340E+03   0.21498E-01   0.21498E-01   0.21542E-01   0.21542E-01
   0.27677E+03   0.17173E-01   0.17173E-01   0.17189E-01   0.17189E-01
   0.28015E+03   0.15200E-01   0.15200E-01   0.15207E-01   0.15207E-01
   0.28352E+03   0.14040E-01   0.14040E-01   0.14044E-01   0.14044E-01
   0.28690E+03   0.13219E-01   0.13219E-01   0.13221E-01   0.13221E-01
   0.29027E+03   0.12701E-01   0.12701E-01   0.12702E-01   0.12702E-01
   0.29365E+03   0.12483E-01   0.12483E-01   0.12482E-01   0.12482E-01
   0.29702E+03   0.12575E-01   0.12575E-01   0.12570E-01   0.12570E-01
   0.30040E+03   0.13565E-01   0.13565E-01   0.13557E-01   0.13557E-01
   0.30377E+03   0.18803E-01   0.18803E-01   0.18783E-01   0.18783E-01
   0.30715E+03   0.14960E-02   0.14960E-02   0.14950E-02   0.14950E-02
   0.31052E+03   0.00000E+00   0.00000E+00   0.00000E+00   0.00000E+00
   0.31390E+03   0.00000E+00   0.00000E+00   0.00000E+00   0.00000E+00
   0.31728E+03   0.00000E+00   0.00000E+00   0.00000E+00   0.00000E+00
   0.32065E+03   0.00000E+00   0.00000E+00   0.00000E+00   0.00000E+00
   0.32403E+03   0.00000E+00   0.00000E+00   0.00000E+00   0.00000E+00
   0.32740E+03   0.00000E+00   0.00000E+00   0.00000E+00   0.00000E+00
   0.33078E+03   0.00000E+00   0.00000E+00   0.00000E+00   0.00000E+00
   0.33415E+03   0.00000E+00   0.00000E+00   0.00000E+00   0.00000E+00
   0.33753E+03   0.00000E+00   0.00000E+00   0.00000E+00   0.00000E+00
