   0.13530E+01   0.51539E-05   0.14164E-04
   0.27060E+01   0.33644E-04   0.92521E-04
   0.40590E+01   0.10106E-03   0.27817E-03
   0.54119E+01   0.14453E-03   0.39883E-03
   0.67649E+01   0.23346E-03   0.64809E-03
   0.81179E+01   0.36195E-03   0.10083E-02
   0.94709E+01   0.43175E-03   0.12078E-02
   0.10824E+02   0.58314E-03   0.16490E-02
   0.12177E+02   0.80952E-03   0.23000E-02
   0.13530E+02   0.87771E-03   0.25158E-02
   0.14883E+02   0.11744E-02   0.34097E-02
   0.16236E+02   0.13564E-02   0.39714E-02
   0.17589E+02   0.15566E-02   0.46231E-02
   0.18942E+02   0.19589E-02   0.59032E-02
   0.20295E+02   0.20751E-02   0.63432E-02
   0.21648E+02   0.24876E-02   0.77642E-02
   0.23001E+02   0.28693E-02   0.91199E-02
   0.24354E+02   0.30746E-02   0.99956E-02
   0.25707E+02   0.36319E-02   0.12151E-01
   0.27060E+02   0.38544E-02   0.13236E-01
   0.28413E+02   0.44400E-02   0.15816E-01
   0.29766E+02   0.48158E-02   0.17767E-01
   0.31119E+02   0.52875E-02   0.20512E-01
   0.32472E+02   0.57282E-02   0.23290E-01
   0.33825E+02   0.63688E-02   0.27655E-01
   0.35178E+02   0.65746E-02   0.30612E-01
   0.36531E+02   0.73424E-02   0.37597E-01
   0.37884E+02   0.75884E-02   0.43531E-01
   0.39237E+02   0.78838E-02   0.52281E-01
   0.40590E+02   0.81350E-02   0.68475E-01
   0.41943E+02   0.78687E-02   0.91297E-01
   0.43296E+02   0.75931E-02   0.96077E-01
   0.44649E+02   0.71078E-02   0.10305E+00
   0.46001E+02   0.75537E-02   0.11194E+00
   0.47354E+02   0.83911E-02   0.11916E+00
   0.48707E+02   0.59261E-02   0.90857E-01
   0.50060E+02   0.45121E-02   0.74391E-01
   0.51413E+02   0.38125E-02   0.64690E-01
   0.52766E+02   0.35650E-02   0.53277E-01
   0.54119E+02   0.33588E-02   0.53753E-01
   0.55472E+02   0.48911E-01   0.54238E-01
   0.56825E+02   0.16647E+00   0.75756E-01
   0.58178E+02   0.14623E+00   0.74343E-01
   0.59531E+02   0.14519E+00   0.69201E-01
   0.60884E+02   0.13820E+00   0.57578E-01
   0.62237E+02   0.12341E+00   0.62786E-01
   0.63590E+02   0.11715E+00   0.12810E+00
   0.64943E+02   0.11499E+00   0.14166E+00
   0.66296E+02   0.95743E-01   0.86448E-01
   0.67649E+02   0.55402E-01   0.19758E-01
   0.69002E+02   0.49382E-01   0.24241E-01
   0.70355E+02   0.55365E-01   0.49881E-01
   0.71708E+02   0.40546E-01   0.24671E-01
   0.73061E+02   0.34832E-01   0.11317E-01
   0.74414E+02   0.29404E-01   0.73142E-03
   0.75767E+02   0.24123E-01   0.45506E-03
   0.77120E+02   0.17949E-01   0.31023E-03
   0.78473E+02   0.10232E-01   0.18741E-03
   0.79826E+02   0.64754E-02   0.14304E-03
   0.81179E+02   0.66192E-02   0.16458E-03
   0.82532E+02   0.90124E-02   0.29770E-03
   0.83885E+02   0.12720E-01   0.47838E-03
   0.85238E+02   0.17388E-01   0.78725E-03
   0.86591E+02   0.21505E-01   0.11649E-02
   0.87944E+02   0.25582E-01   0.15733E-02
   0.89297E+02   0.29161E-01   0.20950E-02
   0.90650E+02   0.25337E-01   0.18205E-02
   0.92003E+02   0.24309E-01   0.18026E-02
   0.93356E+02   0.23416E-01   0.18352E-02
   0.94709E+02   0.23908E-01   0.19278E-02
   0.96062E+02   0.23545E-01   0.20221E-02
   0.97415E+02   0.23619E-01   0.21108E-02
   0.98768E+02   0.24178E-01   0.22394E-02
   0.10012E+03   0.23595E-01   0.23310E-02
   0.10147E+03   0.24704E-01   0.24907E-02
   0.10283E+03   0.24207E-01   0.25948E-02
   0.10418E+03   0.24738E-01   0.27442E-02
   0.10553E+03   0.25016E-01   0.28719E-02
   0.10689E+03   0.24959E-01   0.30318E-02
   0.10824E+03   0.25550E-01   0.31531E-02
   0.10959E+03   0.25428E-01   0.33383E-02
   0.11094E+03   0.25863E-01   0.34732E-02
   0.11230E+03   0.26287E-01   0.36303E-02
   0.11365E+03   0.26109E-01   0.38235E-02
   0.11500E+03   0.26868E-01   0.39652E-02
   0.11636E+03   0.20009E-01   0.40029E-02
   0.11771E+03   0.16215E-01   0.38949E-02
   0.11906E+03   0.13541E-01   0.36735E-02
   0.12042E+03   0.10856E-01   0.32959E-02
   0.12177E+03   0.72021E-02   0.24128E-02
   0.12312E+03   0.45396E-03   0.16462E-03
   0.12447E+03   0.00000E+00   0.00000E+00
   0.12583E+03   0.00000E+00   0.00000E+00
   0.12718E+03   0.00000E+00   0.00000E+00
   0.12853E+03   0.00000E+00   0.00000E+00
   0.12989E+03   0.00000E+00   0.00000E+00
   0.13124E+03   0.00000E+00   0.00000E+00
   0.13259E+03   0.00000E+00   0.00000E+00
   0.13395E+03   0.00000E+00   0.00000E+00
   0.13530E+03   0.00000E+00   0.00000E+00
