   0.21640E+01   0.12169E-04   0.17139E-05
   0.43280E+01   0.94713E-04   0.13291E-04
   0.64920E+01   0.22363E-03   0.30868E-04
   0.86560E+01   0.34386E-03   0.45935E-04
   0.10820E+02   0.65937E-03   0.83864E-04
   0.12984E+02   0.80900E-03   0.98137E-04
   0.15148E+02   0.13713E-02   0.15515E-03
   0.17312E+02   0.17405E-02   0.18167E-03
   0.19476E+02   0.24521E-02   0.23160E-03
   0.21640E+02   0.32659E-02   0.28125E-03
   0.23804E+02   0.44075E-02   0.32633E-03
   0.25968E+02   0.58639E-02   0.37707E-03
   0.28132E+02   0.78650E-02   0.42591E-03
   0.30296E+02   0.10483E-01   0.45923E-03
   0.32460E+02   0.14152E-01   0.49632E-03
   0.34624E+02   0.19020E-01   0.53057E-03
   0.36788E+02   0.25089E-01   0.52586E-03
   0.38952E+02   0.32774E-01   0.54078E-03
   0.41116E+02   0.44475E-01   0.53660E-03
   0.43280E+02   0.60067E-01   0.52173E-03
   0.45444E+02   0.92011E-01   0.53729E-03
   0.47608E+02   0.91848E-01   0.52387E-03
   0.49772E+02   0.92056E-01   0.59018E-03
   0.51936E+02   0.97481E-01   0.65197E-03
   0.54100E+02   0.10318E+00   0.87428E-03
   0.56264E+02   0.71000E-01   0.81591E-03
   0.58428E+02   0.59107E-01   0.93060E-03
   0.60592E+02   0.52422E-01   0.10494E-02
   0.62756E+02   0.46596E-01   0.11610E-02
   0.64920E+02   0.33972E-01   0.11108E-02
   0.67084E+02   0.27429E-01   0.11592E-02
   0.69248E+02   0.60001E-01   0.22842E-02
   0.71412E+02   0.42551E-01   0.15606E-02
   0.73576E+02   0.42523E-01   0.15081E-02
   0.75740E+02   0.44070E-01   0.15296E-02
   0.77904E+02   0.44997E-01   0.15292E-02
   0.80068E+02   0.30964E-01   0.10919E-02
   0.82232E+02   0.24857E-01   0.13027E-02
   0.84396E+02   0.20749E-01   0.25176E-02
   0.86560E+02   0.17377E-01   0.33790E-02
   0.88724E+02   0.14082E-01   0.39478E-02
   0.90888E+02   0.10966E-01   0.45649E-02
   0.93052E+02   0.80228E-02   0.53154E-02
   0.95216E+02   0.46631E-02   0.58510E-02
   0.97380E+02   0.27071E-03   0.67173E-02
   0.99544E+02   0.24158E-03   0.73642E-02
   0.10171E+03   0.23312E-03   0.85360E-02
   0.10387E+03   0.20368E-03   0.92735E-02
   0.10604E+03   0.19277E-03   0.10532E-01
   0.10820E+03   0.17158E-03   0.11630E-01
   0.11036E+03   0.15792E-03   0.13011E-01
   0.11253E+03   0.14417E-03   0.14420E-01
   0.11469E+03   0.13556E-03   0.16430E-01
   0.11686E+03   0.12430E-03   0.17770E-01
   0.11902E+03   0.12670E-03   0.21019E-01
   0.12118E+03   0.12382E-03   0.22917E-01
   0.12335E+03   0.12877E-03   0.26576E-01
   0.12551E+03   0.14652E-03   0.31128E-01
   0.12768E+03   0.17326E-03   0.38410E-01
   0.12984E+03   0.22176E-03   0.54251E-01
   0.13200E+03   0.28006E-03   0.54812E-01
   0.13417E+03   0.33213E-03   0.56191E-01
   0.13633E+03   0.38673E-03   0.56964E-01
   0.13850E+03   0.43542E-03   0.59832E-01
   0.14066E+03   0.47946E-03   0.61947E-01
   0.14282E+03   0.54446E-03   0.65134E-01
   0.14499E+03   0.42104E-03   0.41116E-01
   0.14715E+03   0.38820E-03   0.30980E-01
   0.14932E+03   0.39526E-03   0.22835E-01
   0.15148E+03   0.37849E-03   0.21461E-01
   0.15364E+03   0.38660E-03   0.21370E-01
   0.15581E+03   0.37416E-03   0.20201E-01
   0.15797E+03   0.34481E-03   0.18163E-01
   0.16014E+03   0.32835E-03   0.17123E-01
   0.16230E+03   0.29328E-03   0.15015E-01
   0.16446E+03   0.23598E-03   0.11849E-01
   0.16663E+03   0.16787E-03   0.84327E-02
   0.16879E+03   0.71595E-04   0.35864E-02
   0.17096E+03   0.94693E-04   0.45935E-02
   0.17312E+03   0.18370E-03   0.90722E-02
   0.17528E+03   0.27559E-03   0.13468E-01
   0.17745E+03   0.36810E-03   0.17783E-01
   0.17961E+03   0.48286E-03   0.22757E-01
   0.18178E+03   0.63110E-03   0.28343E-01
   0.18394E+03   0.82348E-03   0.34460E-01
   0.18610E+03   0.11141E-02   0.42294E-01
   0.18827E+03   0.16365E-02   0.53505E-01
   0.19043E+03   0.50064E-02   0.90942E-01
   0.19260E+03   0.32468E-02   0.68358E-01
   0.19476E+03   0.42720E-03   0.22819E-01
   0.19692E+03   0.31239E-06   0.35004E-03
   0.19909E+03   0.00000E+00   0.00000E+00
   0.20125E+03   0.00000E+00   0.00000E+00
   0.20342E+03   0.00000E+00   0.00000E+00
   0.20558E+03   0.00000E+00   0.00000E+00
   0.20774E+03   0.00000E+00   0.00000E+00
   0.20991E+03   0.00000E+00   0.00000E+00
   0.21207E+03   0.00000E+00   0.00000E+00
   0.21424E+03   0.00000E+00   0.00000E+00
   0.21640E+03   0.00000E+00   0.00000E+00
