 2918

    1
0.0000000000e+00 0.0000000000e+00 0.0000000000e+00
0.0000000000e+00 0.0000000000e+00 0.0000000000e+00
     1      1      1
 1  1  1     0.0000000000e+00
 1  1  2     0.0000000000e+00
 1  1  3     0.0000000000e+00
 1  2  1     0.0000000000e+00
 1  2  2     0.0000000000e+00
 1  2  3     0.0000000000e+00
 1  3  1     0.0000000000e+00
 1  3  2     0.0000000000e+00
 1  3  3     0.0000000000e+00
 2  1  1     0.0000000000e+00
 2  1  2     0.0000000000e+00
 2  1  3     0.0000000000e+00
 2  2  1     0.0000000000e+00
 2  2  2     0.0000000000e+00
 2  2  3     0.0000000000e+00
 2  3  1     0.0000000000e+00
 2  3  2     0.0000000000e+00
 2  3  3     0.0000000000e+00
 3  1  1     0.0000000000e+00
 3  1  2     0.0000000000e+00
 3  1  3     0.0000000000e+00
 3  2  1     0.0000000000e+00
 3  2  2     0.0000000000e+00
 3  2  3     0.0000000000e+00
 3  3  1     0.0000000000e+00
 3  3  2     0.0000000000e+00
 3  3  3     0.0000000000e+00

    2
0.0000000000e+00 0.0000000000e+00 0.0000000000e+00
0.0000000000e+00 0.0000000000e+00 0.0000000000e+00
     1      1      2
 1  1  1    -1.4030380471e-02
 1  1  2     4.3202699002e-02
 1  1  3     4.3202699002e-02
 1  2  1     5.8097405424e-02
 1  2  2    -5.8097405424e-02
 1  2  3    -5.4851908444e-02
 1  3  1     5.8097405424e-02
 1  3  2    -5.4851908444e-02
 1  3  3    -5.8097405424e-02
 2  1  1     5.8097405424e-02
 2  1  2    -5.8097405424e-02
 2  1  3    -5.4851908444e-02
 2  2  1    -4.3202699002e-02
 2  2  2     1.4030380471e-02
 2  2  3     4.3202699002e-02
 2  3  1    -5.4851908444e-02
 2  3  2     5.8097405424e-02
 2  3  3     5.8097405424e-02
 3  1  1     5.8097405424e-02
 3  1  2    -5.4851908444e-02
 3  1  3    -5.8097405424e-02
 3  2  1    -5.4851908444e-02
 3  2  2     5.8097405424e-02
 3  2  3     5.8097405424e-02
 3  3  1    -4.3202699002e-02
 3  3  2     4.3202699002e-02
 3  3  3     1.4030380471e-02

    3
0.0000000000e+00 0.0000000000e+00 0.0000000000e+00
-2.0033855440e+00 0.0000000000e+00 2.0033855440e+00
     1      1      1
 1  1  1     3.2203068352e-01
 1  1  2     0.0000000000e+00
 1  1  3    -4.3198204915e-01
 1  2  1     0.0000000000e+00
 1  2  2    -1.6129998119e-01
 1  2  3     0.0000000000e+00
 1  3  1    -5.0208312488e-01
 1  3  2     0.0000000000e+00
 1  3  3     5.0208312488e-01
 2  1  1     0.0000000000e+00
 2  1  2    -1.6129998119e-01
 2  1  3     0.0000000000e+00
 2  2  1    -1.6774166139e-01
 2  2  2     0.0000000000e+00
 2  2  3     1.6774166139e-01
 2  3  1     0.0000000000e+00
 2  3  2     1.6129998119e-01
 2  3  3     0.0000000000e+00
 3  1  1    -5.0208312488e-01
 3  1  2     0.0000000000e+00
 3  1  3     5.0208312488e-01
 3  2  1     0.0000000000e+00
 3  2  2     1.6129998119e-01
 3  2  3     0.0000000000e+00
 3  3  1     4.3198204915e-01
 3  3  2     0.0000000000e+00
 3  3  3    -3.2203068352e-01

    4
0.0000000000e+00 0.0000000000e+00 0.0000000000e+00
4.0067710879e+00 0.0000000000e+00 -4.0067710879e+00
     1      1      2
 1  1  1     1.4030380471e-02
 1  1  2     4.3202699002e-02
 1  1  3    -4.3202699002e-02
 1  2  1     5.8097405424e-02
 1  2  2     5.8097405424e-02
 1  2  3    -5.4851908444e-02
 1  3  1    -5.8097405424e-02
 1  3  2    -5.4851908444e-02
 1  3  3     5.8097405424e-02
 2  1  1     5.8097405424e-02
 2  1  2     5.8097405424e-02
 2  1  3    -5.4851908444e-02
 2  2  1     4.3202699002e-02
 2  2  2     1.4030380471e-02
 2  2  3    -4.3202699002e-02
 2  3  1    -5.4851908444e-02
 2  3  2    -5.8097405424e-02
 2  3  3     5.8097405424e-02
 3  1  1    -5.8097405424e-02
 3  1  2    -5.4851908444e-02
 3  1  3     5.8097405424e-02
 3  2  1    -5.4851908444e-02
 3  2  2    -5.8097405424e-02
 3  2  3     5.8097405424e-02
 3  3  1     4.3202699002e-02
 3  3  2     4.3202699002e-02
 3  3  3    -1.4030380471e-02

    5
0.0000000000e+00 0.0000000000e+00 0.0000000000e+00
2.0033855440e+00 0.0000000000e+00 -2.0033855440e+00
     1      1      1
 1  1  1    -3.2203068352e-01
 1  1  2     0.0000000000e+00
 1  1  3     4.3198204915e-01
 1  2  1     0.0000000000e+00
 1  2  2     1.6129998119e-01
 1  2  3     0.0000000000e+00
 1  3  1     5.0208312488e-01
 1  3  2     0.0000000000e+00
 1  3  3    -5.0208312488e-01
 2  1  1     0.0000000000e+00
 2  1  2     1.6129998119e-01
 2  1  3     0.0000000000e+00
 2  2  1     1.6774166139e-01
 2  2  2     0.0000000000e+00
 2  2  3    -1.6774166139e-01
 2  3  1     0.0000000000e+00
 2  3  2    -1.6129998119e-01
 2  3  3     0.0000000000e+00
 3  1  1     5.0208312488e-01
 3  1  2     0.0000000000e+00
 3  1  3    -5.0208312488e-01
 3  2  1     0.0000000000e+00
 3  2  2    -1.6129998119e-01
 3  2  3     0.0000000000e+00
 3  3  1    -4.3198204915e-01
 3  3  2     0.0000000000e+00
 3  3  3     3.2203068352e-01

    6
0.0000000000e+00 0.0000000000e+00 0.0000000000e+00
2.0033855440e+00 0.0000000000e+00 -2.0033855440e+00
     1      1      2
 1  1  1     0.0000000000e+00
 1  1  2     3.7440141274e-01
 1  1  3     0.0000000000e+00
 1  2  1    -1.8718377794e-01
 1  2  2     0.0000000000e+00
 1  2  3     0.0000000000e+00
 1  3  1     0.0000000000e+00
 1  3  2     0.0000000000e+00
 1  3  3     0.0000000000e+00
 2  1  1    -1.8718377794e-01
 2  1  2     0.0000000000e+00
 2  1  3     0.0000000000e+00
 2  2  1     0.0000000000e+00
 2  2  2    -4.2716005097e+00
 2  2  3     0.0000000000e+00
 2  3  1     0.0000000000e+00
 2  3  2     0.0000000000e+00
 2  3  3    -1.8718377794e-01
 3  1  1     0.0000000000e+00
 3  1  2     0.0000000000e+00
 3  1  3     0.0000000000e+00
 3  2  1     0.0000000000e+00
 3  2  2     0.0000000000e+00
 3  2  3    -1.8718377794e-01
 3  3  1     0.0000000000e+00
 3  3  2     3.7440141274e-01
 3  3  3     0.0000000000e+00

    7
0.0000000000e+00 0.0000000000e+00 0.0000000000e+00
0.0000000000e+00 2.0033855440e+00 2.0033855440e+00
     1      1      1
 1  1  1     0.0000000000e+00
 1  1  2     1.6774166139e-01
 1  1  3     1.6774166139e-01
 1  2  1     1.6129998119e-01
 1  2  2     0.0000000000e+00
 1  2  3     0.0000000000e+00
 1  3  1     1.6129998119e-01
 1  3  2     0.0000000000e+00
 1  3  3     0.0000000000e+00
 2  1  1     1.6129998119e-01
 2  1  2     0.0000000000e+00
 2  1  3     0.0000000000e+00
 2  2  1     0.0000000000e+00
 2  2  2    -3.2203068352e-01
 2  2  3    -4.3198204915e-01
 2  3  1     0.0000000000e+00
 2  3  2    -5.0208312488e-01
 2  3  3    -5.0208312488e-01
 3  1  1     1.6129998119e-01
 3  1  2     0.0000000000e+00
 3  1  3     0.0000000000e+00
 3  2  1     0.0000000000e+00
 3  2  2    -5.0208312488e-01
 3  2  3    -5.0208312488e-01
 3  3  1     0.0000000000e+00
 3  3  2    -4.3198204915e-01
 3  3  3    -3.2203068352e-01

    8
0.0000000000e+00 0.0000000000e+00 0.0000000000e+00
4.0067710879e+00 2.0033855440e+00 -2.0033855440e+00
     1      1      2
 1  1  1    -1.1802792443e-02
 1  1  2     1.0059488417e-02
 1  1  3     0.0000000000e+00
 1  2  1    -7.1842747473e-03
 1  2  2     1.0330940507e-02
 1  2  3     0.0000000000e+00
 1  3  1     0.0000000000e+00
 1  3  2     0.0000000000e+00
 1  3  3    -5.8243647293e-03
 2  1  1    -7.1842747473e-03
 2  1  2     1.0330940507e-02
 2  1  3     0.0000000000e+00
 2  2  1    -1.8728896379e-02
 2  2  2     4.4480202545e-03
 2  2  3     0.0000000000e+00
 2  3  1     0.0000000000e+00
 2  3  2     0.0000000000e+00
 2  3  3    -1.2733010887e-02
 3  1  1     0.0000000000e+00
 3  1  2     0.0000000000e+00
 3  1  3    -5.8243647293e-03
 3  2  1     0.0000000000e+00
 3  2  2     0.0000000000e+00
 3  2  3    -1.2733010887e-02
 3  3  1    -2.0341508491e-02
 3  3  2    -1.4467556774e-02
 3  3  3     0.0000000000e+00

    9
0.0000000000e+00 0.0000000000e+00 0.0000000000e+00
2.0033855440e+00 2.0033855440e+00 0.0000000000e+00
     1      1      1
 1  1  1    -3.2203068352e-01
 1  1  2    -4.3198204915e-01
 1  1  3     0.0000000000e+00
 1  2  1    -5.0208312488e-01
 1  2  2    -5.0208312488e-01
 1  2  3     0.0000000000e+00
 1  3  1     0.0000000000e+00
 1  3  2     0.0000000000e+00
 1  3  3     1.6129998119e-01
 2  1  1    -5.0208312488e-01
 2  1  2    -5.0208312488e-01
 2  1  3     0.0000000000e+00
 2  2  1    -4.3198204915e-01
 2  2  2    -3.2203068352e-01
 2  2  3     0.0000000000e+00
 2  3  1     0.0000000000e+00
 2  3  2     0.0000000000e+00
 2  3  3     1.6129998119e-01
 3  1  1     0.0000000000e+00
 3  1  2     0.0000000000e+00
 3  1  3     1.6129998119e-01
 3  2  1     0.0000000000e+00
 3  2  2     0.0000000000e+00
 3  2  3     1.6129998119e-01
 3  3  1     1.6774166139e-01
 3  3  2     1.6774166139e-01
 3  3  3     0.0000000000e+00

   10
0.0000000000e+00 0.0000000000e+00 0.0000000000e+00
2.0033855440e+00 2.0033855440e+00 0.0000000000e+00
     1      1      2
 1  1  1     0.0000000000e+00
 1  1  2    -1.4467556774e-02
 1  1  3    -2.0341508491e-02
 1  2  1    -1.2733010887e-02
 1  2  2     0.0000000000e+00
 1  2  3     0.0000000000e+00
 1  3  1    -5.8243647293e-03
 1  3  2     0.0000000000e+00
 1  3  3     0.0000000000e+00
 2  1  1    -1.2733010887e-02
 2  1  2     0.0000000000e+00
 2  1  3     0.0000000000e+00
 2  2  1     0.0000000000e+00
 2  2  2     4.4480202545e-03
 2  2  3    -1.8728896379e-02
 2  3  1     0.0000000000e+00
 2  3  2     1.0330940507e-02
 2  3  3    -7.1842747473e-03
 3  1  1    -5.8243647293e-03
 3  1  2     0.0000000000e+00
 3  1  3     0.0000000000e+00
 3  2  1     0.0000000000e+00
 3  2  2     1.0330940507e-02
 3  2  3    -7.1842747473e-03
 3  3  1     0.0000000000e+00
 3  3  2     1.0059488417e-02
 3  3  3    -1.1802792443e-02

   11
0.0000000000e+00 0.0000000000e+00 0.0000000000e+00
0.0000000000e+00 -4.0067710879e+00 -4.0067710879e+00
     1      1      2
 1  1  1    -1.4030380471e-02
 1  1  2    -4.3202699002e-02
 1  1  3    -4.3202699002e-02
 1  2  1    -5.8097405424e-02
 1  2  2    -5.8097405424e-02
 1  2  3    -5.4851908444e-02
 1  3  1    -5.8097405424e-02
 1  3  2    -5.4851908444e-02
 1  3  3    -5.8097405424e-02
 2  1  1    -5.8097405424e-02
 2  1  2    -5.8097405424e-02
 2  1  3    -5.4851908444e-02
 2  2  1    -4.3202699002e-02
 2  2  2    -1.4030380471e-02
 2  2  3    -4.3202699002e-02
 2  3  1    -5.4851908444e-02
 2  3  2    -5.8097405424e-02
 2  3  3    -5.8097405424e-02
 3  1  1    -5.8097405424e-02
 3  1  2    -5.4851908444e-02
 3  1  3    -5.8097405424e-02
 3  2  1    -5.4851908444e-02
 3  2  2    -5.8097405424e-02
 3  2  3    -5.8097405424e-02
 3  3  1    -4.3202699002e-02
 3  3  2    -4.3202699002e-02
 3  3  3    -1.4030380471e-02

   12
0.0000000000e+00 0.0000000000e+00 0.0000000000e+00
-2.0033855440e+00 -4.0067710879e+00 -2.0033855440e+00
     1      1      2
 1  1  1    -4.4480202545e-03
 1  1  2     1.8728896379e-02
 1  1  3     0.0000000000e+00
 1  2  1    -1.0330940507e-02
 1  2  2     7.1842747473e-03
 1  2  3     0.0000000000e+00
 1  3  1     0.0000000000e+00
 1  3  2     0.0000000000e+00
 1  3  3     1.2733010887e-02
 2  1  1    -1.0330940507e-02
 2  1  2     7.1842747473e-03
 2  1  3     0.0000000000e+00
 2  2  1    -1.0059488417e-02
 2  2  2     1.1802792443e-02
 2  2  3     0.0000000000e+00
 2  3  1     0.0000000000e+00
 2  3  2     0.0000000000e+00
 2  3  3     5.8243647293e-03
 3  1  1     0.0000000000e+00
 3  1  2     0.0000000000e+00
 3  1  3     1.2733010887e-02
 3  2  1     0.0000000000e+00
 3  2  2     0.0000000000e+00
 3  2  3     5.8243647293e-03
 3  3  1     1.4467556774e-02
 3  3  2     2.0341508491e-02
 3  3  3     0.0000000000e+00

   13
0.0000000000e+00 0.0000000000e+00 0.0000000000e+00
2.0033855440e+00 -4.0067710879e+00 -6.0101566319e+00
     1      1      2
 1  1  1     0.0000000000e+00
 1  1  2     2.0341508491e-02
 1  1  3     1.4467556774e-02
 1  2  1     5.8243647293e-03
 1  2  2     0.0000000000e+00
 1  2  3     0.0000000000e+00
 1  3  1     1.2733010887e-02
 1  3  2     0.0000000000e+00
 1  3  3     0.0000000000e+00
 2  1  1     5.8243647293e-03
 2  1  2     0.0000000000e+00
 2  1  3     0.0000000000e+00
 2  2  1     0.0000000000e+00
 2  2  2     1.1802792443e-02
 2  2  3    -1.0059488417e-02
 2  3  1     0.0000000000e+00
 2  3  2     7.1842747473e-03
 2  3  3    -1.0330940507e-02
 3  1  1     1.2733010887e-02
 3  1  2     0.0000000000e+00
 3  1  3     0.0000000000e+00
 3  2  1     0.0000000000e+00
 3  2  2     7.1842747473e-03
 3  2  3    -1.0330940507e-02
 3  3  1     0.0000000000e+00
 3  3  2     1.8728896379e-02
 3  3  3    -4.4480202545e-03

   14
0.0000000000e+00 0.0000000000e+00 0.0000000000e+00
0.0000000000e+00 -2.0033855440e+00 -2.0033855440e+00
     1      1      1
 1  1  1     0.0000000000e+00
 1  1  2    -1.6774166139e-01
 1  1  3    -1.6774166139e-01
 1  2  1    -1.6129998119e-01
 1  2  2     0.0000000000e+00
 1  2  3     0.0000000000e+00
 1  3  1    -1.6129998119e-01
 1  3  2     0.0000000000e+00
 1  3  3     0.0000000000e+00
 2  1  1    -1.6129998119e-01
 2  1  2     0.0000000000e+00
 2  1  3     0.0000000000e+00
 2  2  1     0.0000000000e+00
 2  2  2     3.2203068352e-01
 2  2  3     4.3198204915e-01
 2  3  1     0.0000000000e+00
 2  3  2     5.0208312488e-01
 2  3  3     5.0208312488e-01
 3  1  1    -1.6129998119e-01
 3  1  2     0.0000000000e+00
 3  1  3     0.0000000000e+00
 3  2  1     0.0000000000e+00
 3  2  2     5.0208312488e-01
 3  2  3     5.0208312488e-01
 3  3  1     0.0000000000e+00
 3  3  2     4.3198204915e-01
 3  3  3     3.2203068352e-01

   15
0.0000000000e+00 0.0000000000e+00 0.0000000000e+00
0.0000000000e+00 -2.0033855440e+00 -2.0033855440e+00
     1      1      2
 1  1  1     4.2716005097e+00
 1  1  2     0.0000000000e+00
 1  1  3     0.0000000000e+00
 1  2  1     0.0000000000e+00
 1  2  2     1.8718377794e-01
 1  2  3     0.0000000000e+00
 1  3  1     0.0000000000e+00
 1  3  2     0.0000000000e+00
 1  3  3     1.8718377794e-01
 2  1  1     0.0000000000e+00
 2  1  2     1.8718377794e-01
 2  1  3     0.0000000000e+00
 2  2  1    -3.7440141274e-01
 2  2  2     0.0000000000e+00
 2  2  3     0.0000000000e+00
 2  3  1     0.0000000000e+00
 2  3  2     0.0000000000e+00
 2  3  3     0.0000000000e+00
 3  1  1     0.0000000000e+00
 3  1  2     0.0000000000e+00
 3  1  3     1.8718377794e-01
 3  2  1     0.0000000000e+00
 3  2  2     0.0000000000e+00
 3  2  3     0.0000000000e+00
 3  3  1    -3.7440141274e-01
 3  3  2     0.0000000000e+00
 3  3  3     0.0000000000e+00

   16
0.0000000000e+00 0.0000000000e+00 0.0000000000e+00
-2.0033855440e+00 -2.0033855440e+00 0.0000000000e+00
     1      1      1
 1  1  1     3.2203068352e-01
 1  1  2     4.3198204915e-01
 1  1  3     0.0000000000e+00
 1  2  1     5.0208312488e-01
 1  2  2     5.0208312488e-01
 1  2  3     0.0000000000e+00
 1  3  1     0.0000000000e+00
 1  3  2     0.0000000000e+00
 1  3  3    -1.6129998119e-01
 2  1  1     5.0208312488e-01
 2  1  2     5.0208312488e-01
 2  1  3     0.0000000000e+00
 2  2  1     4.3198204915e-01
 2  2  2     3.2203068352e-01
 2  2  3     0.0000000000e+00
 2  3  1     0.0000000000e+00
 2  3  2     0.0000000000e+00
 2  3  3    -1.6129998119e-01
 3  1  1     0.0000000000e+00
 3  1  2     0.0000000000e+00
 3  1  3    -1.6129998119e-01
 3  2  1     0.0000000000e+00
 3  2  2     0.0000000000e+00
 3  2  3    -1.6129998119e-01
 3  3  1    -1.6774166139e-01
 3  3  2    -1.6774166139e-01
 3  3  3     0.0000000000e+00

   17
0.0000000000e+00 0.0000000000e+00 0.0000000000e+00
-2.0033855440e+00 -2.0033855440e+00 0.0000000000e+00
     1      1      2
 1  1  1    -4.4480202545e-03
 1  1  2     0.0000000000e+00
 1  1  3    -1.8728896379e-02
 1  2  1     0.0000000000e+00
 1  2  2     1.2733010887e-02
 1  2  3     0.0000000000e+00
 1  3  1     1.0330940507e-02
 1  3  2     0.0000000000e+00
 1  3  3     7.1842747473e-03
 2  1  1     0.0000000000e+00
 2  1  2     1.2733010887e-02
 2  1  3     0.0000000000e+00
 2  2  1     1.4467556774e-02
 2  2  2     0.0000000000e+00
 2  2  3    -2.0341508491e-02
 2  3  1     0.0000000000e+00
 2  3  2    -5.8243647293e-03
 2  3  3     0.0000000000e+00
 3  1  1     1.0330940507e-02
 3  1  2     0.0000000000e+00
 3  1  3     7.1842747473e-03
 3  2  1     0.0000000000e+00
 3  2  2    -5.8243647293e-03
 3  2  3     0.0000000000e+00
 3  3  1    -1.0059488417e-02
 3  3  2     0.0000000000e+00
 3  3  3    -1.1802792443e-02

   18
0.0000000000e+00 0.0000000000e+00 0.0000000000e+00
4.0067710879e+00 -2.0033855440e+00 -6.0101566319e+00
     1      1      2
 1  1  1    -1.1802792443e-02
 1  1  2     0.0000000000e+00
 1  1  3    -1.0059488417e-02
 1  2  1     0.0000000000e+00
 1  2  2    -5.8243647293e-03
 1  2  3     0.0000000000e+00
 1  3  1     7.1842747473e-03
 1  3  2     0.0000000000e+00
 1  3  3     1.0330940507e-02
 2  1  1     0.0000000000e+00
 2  1  2    -5.8243647293e-03
 2  1  3     0.0000000000e+00
 2  2  1    -2.0341508491e-02
 2  2  2     0.0000000000e+00
 2  2  3     1.4467556774e-02
 2  3  1     0.0000000000e+00
 2  3  2     1.2733010887e-02
 2  3  3     0.0000000000e+00
 3  1  1     7.1842747473e-03
 3  1  2     0.0000000000e+00
 3  1  3     1.0330940507e-02
 3  2  1     0.0000000000e+00
 3  2  2     1.2733010887e-02
 3  2  3     0.0000000000e+00
 3  3  1    -1.8728896379e-02
 3  3  2     0.0000000000e+00
 3  3  3    -4.4480202545e-03

   19
0.0000000000e+00 0.0000000000e+00 0.0000000000e+00
2.0033855440e+00 -2.0033855440e+00 -4.0067710879e+00
     1      1      2
 1  1  1     0.0000000000e+00
 1  1  2     0.0000000000e+00
 1  1  3    -3.7440141274e-01
 1  2  1     0.0000000000e+00
 1  2  2     0.0000000000e+00
 1  2  3     0.0000000000e+00
 1  3  1     1.8718377794e-01
 1  3  2     0.0000000000e+00
 1  3  3     0.0000000000e+00
 2  1  1     0.0000000000e+00
 2  1  2     0.0000000000e+00
 2  1  3     0.0000000000e+00
 2  2  1     0.0000000000e+00
 2  2  2     0.0000000000e+00
 2  2  3    -3.7440141274e-01
 2  3  1     0.0000000000e+00
 2  3  2     1.8718377794e-01
 2  3  3     0.0000000000e+00
 3  1  1     1.8718377794e-01
 3  1  2     0.0000000000e+00
 3  1  3     0.0000000000e+00
 3  2  1     0.0000000000e+00
 3  2  2     1.8718377794e-01
 3  2  3     0.0000000000e+00
 3  3  1     0.0000000000e+00
 3  3  2     0.0000000000e+00
 3  3  3     4.2716005097e+00

   20
0.0000000000e+00 0.0000000000e+00 0.0000000000e+00
-2.0033855440e+00 2.0033855440e+00 0.0000000000e+00
     1      1      1
 1  1  1     3.2203068352e-01
 1  1  2    -4.3198204915e-01
 1  1  3     0.0000000000e+00
 1  2  1    -5.0208312488e-01
 1  2  2     5.0208312488e-01
 1  2  3     0.0000000000e+00
 1  3  1     0.0000000000e+00
 1  3  2     0.0000000000e+00
 1  3  3    -1.6129998119e-01
 2  1  1    -5.0208312488e-01
 2  1  2     5.0208312488e-01
 2  1  3     0.0000000000e+00
 2  2  1     4.3198204915e-01
 2  2  2    -3.2203068352e-01
 2  2  3     0.0000000000e+00
 2  3  1     0.0000000000e+00
 2  3  2     0.0000000000e+00
 2  3  3     1.6129998119e-01
 3  1  1     0.0000000000e+00
 3  1  2     0.0000000000e+00
 3  1  3    -1.6129998119e-01
 3  2  1     0.0000000000e+00
 3  2  2     0.0000000000e+00
 3  2  3     1.6129998119e-01
 3  3  1    -1.6774166139e-01
 3  3  2     1.6774166139e-01
 3  3  3     0.0000000000e+00

   21
0.0000000000e+00 0.0000000000e+00 0.0000000000e+00
2.0033855440e+00 2.0033855440e+00 -4.0067710879e+00
     1      1      2
 1  1  1     0.0000000000e+00
 1  1  2    -1.4467556774e-02
 1  1  3     2.0341508491e-02
 1  2  1    -1.2733010887e-02
 1  2  2     0.0000000000e+00
 1  2  3     0.0000000000e+00
 1  3  1     5.8243647293e-03
 1  3  2     0.0000000000e+00
 1  3  3     0.0000000000e+00
 2  1  1    -1.2733010887e-02
 2  1  2     0.0000000000e+00
 2  1  3     0.0000000000e+00
 2  2  1     0.0000000000e+00
 2  2  2     4.4480202545e-03
 2  2  3     1.8728896379e-02
 2  3  1     0.0000000000e+00
 2  3  2    -1.0330940507e-02
 2  3  3    -7.1842747473e-03
 3  1  1     5.8243647293e-03
 3  1  2     0.0000000000e+00
 3  1  3     0.0000000000e+00
 3  2  1     0.0000000000e+00
 3  2  2    -1.0330940507e-02
 3  2  3    -7.1842747473e-03
 3  3  1     0.0000000000e+00
 3  3  2     1.0059488417e-02
 3  3  3     1.1802792443e-02

   22
0.0000000000e+00 0.0000000000e+00 0.0000000000e+00
0.0000000000e+00 2.0033855440e+00 -2.0033855440e+00
     1      1      1
 1  1  1     0.0000000000e+00
 1  1  2     1.6774166139e-01
 1  1  3    -1.6774166139e-01
 1  2  1     1.6129998119e-01
 1  2  2     0.0000000000e+00
 1  2  3     0.0000000000e+00
 1  3  1    -1.6129998119e-01
 1  3  2     0.0000000000e+00
 1  3  3     0.0000000000e+00
 2  1  1     1.6129998119e-01
 2  1  2     0.0000000000e+00
 2  1  3     0.0000000000e+00
 2  2  1     0.0000000000e+00
 2  2  2    -3.2203068352e-01
 2  2  3     4.3198204915e-01
 2  3  1     0.0000000000e+00
 2  3  2     5.0208312488e-01
 2  3  3    -5.0208312488e-01
 3  1  1    -1.6129998119e-01
 3  1  2     0.0000000000e+00
 3  1  3     0.0000000000e+00
 3  2  1     0.0000000000e+00
 3  2  2     5.0208312488e-01
 3  2  3    -5.0208312488e-01
 3  3  1     0.0000000000e+00
 3  3  2    -4.3198204915e-01
 3  3  3     3.2203068352e-01

   23
0.0000000000e+00 0.0000000000e+00 0.0000000000e+00
0.0000000000e+00 2.0033855440e+00 -2.0033855440e+00
     1      1      2
 1  1  1     1.1802792443e-02
 1  1  2     1.0059488417e-02
 1  1  3     0.0000000000e+00
 1  2  1    -7.1842747473e-03
 1  2  2    -1.0330940507e-02
 1  2  3     0.0000000000e+00
 1  3  1     0.0000000000e+00
 1  3  2     0.0000000000e+00
 1  3  3     5.8243647293e-03
 2  1  1    -7.1842747473e-03
 2  1  2    -1.0330940507e-02
 2  1  3     0.0000000000e+00
 2  2  1     1.8728896379e-02
 2  2  2     4.4480202545e-03
 2  2  3     0.0000000000e+00
 2  3  1     0.0000000000e+00
 2  3  2     0.0000000000e+00
 2  3  3    -1.2733010887e-02
 3  1  1     0.0000000000e+00
 3  1  2     0.0000000000e+00
 3  1  3     5.8243647293e-03
 3  2  1     0.0000000000e+00
 3  2  2     0.0000000000e+00
 3  2  3    -1.2733010887e-02
 3  3  1     2.0341508491e-02
 3  3  2    -1.4467556774e-02
 3  3  3     0.0000000000e+00

   24
0.0000000000e+00 0.0000000000e+00 0.0000000000e+00
0.0000000000e+00 4.0067710879e+00 0.0000000000e+00
     1      1      1
 1  1  1     0.0000000000e+00
 1  1  2     2.3758699358e-02
 1  1  3     0.0000000000e+00
 1  2  1    -9.0924408299e-03
 1  2  2     0.0000000000e+00
 1  2  3     0.0000000000e+00
 1  3  1     0.0000000000e+00
 1  3  2     0.0000000000e+00
 1  3  3     0.0000000000e+00
 2  1  1    -9.0924408299e-03
 2  1  2     0.0000000000e+00
 2  1  3     0.0000000000e+00
 2  2  1     0.0000000000e+00
 2  2  2     1.0091580302e-01
 2  2  3     0.0000000000e+00
 2  3  1     0.0000000000e+00
 2  3  2     0.0000000000e+00
 2  3  3    -9.0924408299e-03
 3  1  1     0.0000000000e+00
 3  1  2     0.0000000000e+00
 3  1  3     0.0000000000e+00
 3  2  1     0.0000000000e+00
 3  2  2     0.0000000000e+00
 3  2  3    -9.0924408299e-03
 3  3  1     0.0000000000e+00
 3  3  2     2.3758699358e-02
 3  3  3     0.0000000000e+00

   25
0.0000000000e+00 0.0000000000e+00 0.0000000000e+00
-2.0033855440e+00 -2.0033855440e+00 -4.0067710879e+00
     1      1      2
 1  1  1    -4.4480202545e-03
 1  1  2     0.0000000000e+00
 1  1  3     1.8728896379e-02
 1  2  1     0.0000000000e+00
 1  2  2     1.2733010887e-02
 1  2  3     0.0000000000e+00
 1  3  1    -1.0330940507e-02
 1  3  2     0.0000000000e+00
 1  3  3     7.1842747473e-03
 2  1  1     0.0000000000e+00
 2  1  2     1.2733010887e-02
 2  1  3     0.0000000000e+00
 2  2  1     1.4467556774e-02
 2  2  2     0.0000000000e+00
 2  2  3     2.0341508491e-02
 2  3  1     0.0000000000e+00
 2  3  2     5.8243647293e-03
 2  3  3     0.0000000000e+00
 3  1  1    -1.0330940507e-02
 3  1  2     0.0000000000e+00
 3  1  3     7.1842747473e-03
 3  2  1     0.0000000000e+00
 3  2  2     5.8243647293e-03
 3  2  3     0.0000000000e+00
 3  3  1    -1.0059488417e-02
 3  3  2     0.0000000000e+00
 3  3  3     1.1802792443e-02

   26
0.0000000000e+00 0.0000000000e+00 0.0000000000e+00
0.0000000000e+00 -2.0033855440e+00 -6.0101566319e+00
     1      1      2
 1  1  1     1.1802792443e-02
 1  1  2     0.0000000000e+00
 1  1  3    -1.0059488417e-02
 1  2  1     0.0000000000e+00
 1  2  2     5.8243647293e-03
 1  2  3     0.0000000000e+00
 1  3  1     7.1842747473e-03
 1  3  2     0.0000000000e+00
 1  3  3    -1.0330940507e-02
 2  1  1     0.0000000000e+00
 2  1  2     5.8243647293e-03
 2  1  3     0.0000000000e+00
 2  2  1     2.0341508491e-02
 2  2  2     0.0000000000e+00
 2  2  3     1.4467556774e-02
 2  3  1     0.0000000000e+00
 2  3  2     1.2733010887e-02
 2  3  3     0.0000000000e+00
 3  1  1     7.1842747473e-03
 3  1  2     0.0000000000e+00
 3  1  3    -1.0330940507e-02
 3  2  1     0.0000000000e+00
 3  2  2     1.2733010887e-02
 3  2  3     0.0000000000e+00
 3  3  1     1.8728896379e-02
 3  3  2     0.0000000000e+00
 3  3  3    -4.4480202545e-03

   27
0.0000000000e+00 0.0000000000e+00 0.0000000000e+00
-2.0033855440e+00 0.0000000000e+00 -2.0033855440e+00
     1      1      1
 1  1  1     3.2203068352e-01
 1  1  2     0.0000000000e+00
 1  1  3     4.3198204915e-01
 1  2  1     0.0000000000e+00
 1  2  2    -1.6129998119e-01
 1  2  3     0.0000000000e+00
 1  3  1     5.0208312488e-01
 1  3  2     0.0000000000e+00
 1  3  3     5.0208312488e-01
 2  1  1     0.0000000000e+00
 2  1  2    -1.6129998119e-01
 2  1  3     0.0000000000e+00
 2  2  1    -1.6774166139e-01
 2  2  2     0.0000000000e+00
 2  2  3    -1.6774166139e-01
 2  3  1     0.0000000000e+00
 2  3  2    -1.6129998119e-01
 2  3  3     0.0000000000e+00
 3  1  1     5.0208312488e-01
 3  1  2     0.0000000000e+00
 3  1  3     5.0208312488e-01
 3  2  1     0.0000000000e+00
 3  2  2    -1.6129998119e-01
 3  2  3     0.0000000000e+00
 3  3  1     4.3198204915e-01
 3  3  2     0.0000000000e+00
 3  3  3     3.2203068352e-01

   28
0.0000000000e+00 0.0000000000e+00 0.0000000000e+00
-2.0033855440e+00 0.0000000000e+00 -2.0033855440e+00
     1      1      2
 1  1  1    -4.4480202545e-03
 1  1  2    -1.8728896379e-02
 1  1  3     0.0000000000e+00
 1  2  1     1.0330940507e-02
 1  2  2     7.1842747473e-03
 1  2  3     0.0000000000e+00
 1  3  1     0.0000000000e+00
 1  3  2     0.0000000000e+00
 1  3  3     1.2733010887e-02
 2  1  1     1.0330940507e-02
 2  1  2     7.1842747473e-03
 2  1  3     0.0000000000e+00
 2  2  1    -1.0059488417e-02
 2  2  2    -1.1802792443e-02
 2  2  3     0.0000000000e+00
 2  3  1     0.0000000000e+00
 2  3  2     0.0000000000e+00
 2  3  3    -5.8243647293e-03
 3  1  1     0.0000000000e+00
 3  1  2     0.0000000000e+00
 3  1  3     1.2733010887e-02
 3  2  1     0.0000000000e+00
 3  2  2     0.0000000000e+00
 3  2  3    -5.8243647293e-03
 3  3  1     1.4467556774e-02
 3  3  2    -2.0341508491e-02
 3  3  3     0.0000000000e+00

   29
0.0000000000e+00 0.0000000000e+00 0.0000000000e+00
-4.0067710879e+00 0.0000000000e+00 0.0000000000e+00
     1      1      1
 1  1  1    -1.0091580302e-01
 1  1  2     0.0000000000e+00
 1  1  3     0.0000000000e+00
 1  2  1     0.0000000000e+00
 1  2  2     9.0924408299e-03
 1  2  3     0.0000000000e+00
 1  3  1     0.0000000000e+00
 1  3  2     0.0000000000e+00
 1  3  3     9.0924408299e-03
 2  1  1     0.0000000000e+00
 2  1  2     9.0924408299e-03
 2  1  3     0.0000000000e+00
 2  2  1    -2.3758699358e-02
 2  2  2     0.0000000000e+00
 2  2  3     0.0000000000e+00
 2  3  1     0.0000000000e+00
 2  3  2     0.0000000000e+00
 2  3  3     0.0000000000e+00
 3  1  1     0.0000000000e+00
 3  1  2     0.0000000000e+00
 3  1  3     9.0924408299e-03
 3  2  1     0.0000000000e+00
 3  2  2     0.0000000000e+00
 3  2  3     0.0000000000e+00
 3  3  1    -2.3758699358e-02
 3  3  2     0.0000000000e+00
 3  3  3     0.0000000000e+00

   30
0.0000000000e+00 0.0000000000e+00 0.0000000000e+00
2.0033855440e+00 0.0000000000e+00 -6.0101566319e+00
     1      1      2
 1  1  1     0.0000000000e+00
 1  1  2    -2.0341508491e-02
 1  1  3     1.4467556774e-02
 1  2  1    -5.8243647293e-03
 1  2  2     0.0000000000e+00
 1  2  3     0.0000000000e+00
 1  3  1     1.2733010887e-02
 1  3  2     0.0000000000e+00
 1  3  3     0.0000000000e+00
 2  1  1    -5.8243647293e-03
 2  1  2     0.0000000000e+00
 2  1  3     0.0000000000e+00
 2  2  1     0.0000000000e+00
 2  2  2    -1.1802792443e-02
 2  2  3    -1.0059488417e-02
 2  3  1     0.0000000000e+00
 2  3  2     7.1842747473e-03
 2  3  3     1.0330940507e-02
 3  1  1     1.2733010887e-02
 3  1  2     0.0000000000e+00
 3  1  3     0.0000000000e+00
 3  2  1     0.0000000000e+00
 3  2  2     7.1842747473e-03
 3  2  3     1.0330940507e-02
 3  3  1     0.0000000000e+00
 3  3  2    -1.8728896379e-02
 3  3  3    -4.4480202545e-03

   31
0.0000000000e+00 0.0000000000e+00 0.0000000000e+00
0.0000000000e+00 0.0000000000e+00 -4.0067710879e+00
     1      1      1
 1  1  1     0.0000000000e+00
 1  1  2     0.0000000000e+00
 1  1  3    -2.3758699358e-02
 1  2  1     0.0000000000e+00
 1  2  2     0.0000000000e+00
 1  2  3     0.0000000000e+00
 1  3  1     9.0924408299e-03
 1  3  2     0.0000000000e+00
 1  3  3     0.0000000000e+00
 2  1  1     0.0000000000e+00
 2  1  2     0.0000000000e+00
 2  1  3     0.0000000000e+00
 2  2  1     0.0000000000e+00
 2  2  2     0.0000000000e+00
 2  2  3    -2.3758699358e-02
 2  3  1     0.0000000000e+00
 2  3  2     9.0924408299e-03
 2  3  3     0.0000000000e+00
 3  1  1     9.0924408299e-03
 3  1  2     0.0000000000e+00
 3  1  3     0.0000000000e+00
 3  2  1     0.0000000000e+00
 3  2  2     9.0924408299e-03
 3  2  3     0.0000000000e+00
 3  3  1     0.0000000000e+00
 3  3  2     0.0000000000e+00
 3  3  3    -1.0091580302e-01

   32
0.0000000000e+00 0.0000000000e+00 0.0000000000e+00
0.0000000000e+00 0.0000000000e+00 -4.0067710879e+00
     1      1      2
 1  1  1    -1.4030380471e-02
 1  1  2     4.3202699002e-02
 1  1  3    -4.3202699002e-02
 1  2  1     5.8097405424e-02
 1  2  2    -5.8097405424e-02
 1  2  3     5.4851908444e-02
 1  3  1    -5.8097405424e-02
 1  3  2     5.4851908444e-02
 1  3  3    -5.8097405424e-02
 2  1  1     5.8097405424e-02
 2  1  2    -5.8097405424e-02
 2  1  3     5.4851908444e-02
 2  2  1    -4.3202699002e-02
 2  2  2     1.4030380471e-02
 2  2  3    -4.3202699002e-02
 2  3  1     5.4851908444e-02
 2  3  2    -5.8097405424e-02
 2  3  3     5.8097405424e-02
 3  1  1    -5.8097405424e-02
 3  1  2     5.4851908444e-02
 3  1  3    -5.8097405424e-02
 3  2  1     5.4851908444e-02