   0.12535E+01   0.89178E-05   0.24374E-04
   0.25070E+01   0.66259E-04   0.18090E-03
   0.37605E+01   0.16293E-03   0.44296E-03
   0.50141E+01   0.20177E-03   0.55104E-03
   0.62676E+01   0.44203E-03   0.12025E-02
   0.75211E+01   0.50054E-03   0.13631E-02
   0.87746E+01   0.67548E-03   0.18413E-02
   0.10028E+02   0.94705E-03   0.26010E-02
   0.11282E+02   0.11280E-02   0.31174E-02
   0.12535E+02   0.14160E-02   0.39510E-02
   0.13789E+02   0.16531E-02   0.46742E-02
   0.15042E+02   0.19557E-02   0.56138E-02
   0.16296E+02   0.23396E-02   0.68341E-02
   0.17549E+02   0.26750E-02   0.79766E-02
   0.18803E+02   0.30334E-02   0.92539E-02
   0.20056E+02   0.34769E-02   0.10874E-01
   0.21310E+02   0.39939E-02   0.12858E-01
   0.22563E+02   0.43573E-02   0.14460E-01
   0.23817E+02   0.49676E-02   0.17140E-01
   0.25070E+02   0.54545E-02   0.19606E-01
   0.26324E+02   0.60871E-02   0.23006E-01
   0.27577E+02   0.65993E-02   0.26550E-01
   0.28831E+02   0.71407E-02   0.31017E-01
   0.30084E+02   0.76771E-02   0.36581E-01
   0.31338E+02   0.81295E-02   0.43760E-01
   0.32591E+02   0.82631E-02   0.52699E-01
   0.33845E+02   0.83416E-02   0.74098E-01
   0.35098E+02   0.78311E-02   0.84386E-01
   0.36352E+02   0.70638E-02   0.86691E-01
   0.37605E+02   0.65105E-02   0.92214E-01
   0.38859E+02   0.58410E-02   0.95604E-01
   0.40112E+02   0.52975E-02   0.10075E+00
   0.41366E+02   0.53642E-02   0.10535E+00
   0.42620E+02   0.57397E-02   0.10797E+00
   0.43873E+02   0.15742E+00   0.14960E+00
   0.45127E+02   0.17488E+00   0.11471E+00
   0.46380E+02   0.14741E+00   0.91271E-01
   0.47634E+02   0.13955E+00   0.80330E-01
   0.48887E+02   0.13194E+00   0.72491E-01
   0.50141E+02   0.12420E+00   0.66406E-01
   0.51394E+02   0.11250E+00   0.52115E-01
   0.52648E+02   0.11223E+00   0.53919E-01
   0.53901E+02   0.90321E-01   0.69938E-01
   0.55155E+02   0.86350E-01   0.10310E+00
   0.56408E+02   0.62427E-01   0.90693E-01
   0.57662E+02   0.30345E-01   0.19622E-01
   0.58915E+02   0.27841E-01   0.18244E-01
   0.60169E+02   0.24625E-01   0.18778E-01
   0.61422E+02   0.22703E-01   0.20418E-01
   0.62676E+02   0.22100E-01   0.22882E-01
   0.63929E+02   0.23179E-01   0.26988E-01
   0.65183E+02   0.25837E-01   0.34495E-01
   0.66436E+02   0.36989E-01   0.73108E-01
   0.67690E+02   0.23757E-01   0.29013E-01
   0.68943E+02   0.16800E-01   0.49934E-02
   0.70197E+02   0.10541E-01   0.25969E-02
   0.71450E+02   0.67118E-02   0.14594E-02
   0.72704E+02   0.54861E-02   0.10923E-02
   0.73957E+02   0.54898E-02   0.10506E-02
   0.75211E+02   0.76520E-02   0.14481E-02
   0.76464E+02   0.10861E-01   0.20043E-02
   0.77718E+02   0.13893E-01   0.26462E-02
   0.78971E+02   0.16755E-01   0.31711E-02
   0.80225E+02   0.20533E-01   0.40433E-02
   0.81478E+02   0.23051E-01   0.46668E-02
   0.82732E+02   0.25881E-01   0.52912E-02
   0.83985E+02   0.25412E-01   0.49728E-02
   0.85239E+02   0.23521E-01   0.41968E-02
   0.86493E+02   0.23530E-01   0.39304E-02
   0.87746E+02   0.23249E-01   0.37840E-02
   0.89000E+02   0.23266E-01   0.36573E-02
   0.90253E+02   0.23844E-01   0.36358E-02
   0.91507E+02   0.23511E-01   0.35877E-02
   0.92760E+02   0.24237E-01   0.36114E-02
   0.94014E+02   0.24520E-01   0.36615E-02
   0.95267E+02   0.24337E-01   0.36432E-02
   0.96521E+02   0.25458E-01   0.37497E-02
   0.97774E+02   0.24794E-01   0.37608E-02
   0.99028E+02   0.26024E-01   0.38831E-02
   0.10028E+03   0.25529E-01   0.39244E-02
   0.10153E+03   0.26706E-01   0.40798E-02
   0.10279E+03   0.26204E-01   0.41677E-02
   0.10404E+03   0.27295E-01   0.42949E-02
   0.10530E+03   0.27798E-01   0.44671E-02
   0.10655E+03   0.27646E-01   0.45775E-02
   0.10780E+03   0.21289E-01   0.45907E-02
   0.10906E+03   0.17312E-01   0.44107E-02
   0.11031E+03   0.14216E-01   0.40504E-02
   0.11156E+03   0.11637E-01   0.36321E-02
   0.11282E+03   0.73821E-02   0.25198E-02
   0.11407E+03   0.52712E-03   0.19151E-03
   0.11532E+03   0.00000E+00   0.00000E+00
   0.11658E+03   0.00000E+00   0.00000E+00
   0.11783E+03   0.00000E+00   0.00000E+00
   0.11908E+03   0.00000E+00   0.00000E+00
   0.12034E+03   0.00000E+00   0.00000E+00
   0.12159E+03   0.00000E+00   0.00000E+00
   0.12284E+03   0.00000E+00   0.00000E+00
   0.12410E+03   0.00000E+00   0.00000E+00
   0.12535E+03   0.00000E+00   0.00000E+00
