   0.33366E+01   0.16711E-02   0.16711E-02   0.21978E-02   0.21978E-02
   0.66732E+01   0.20955E-02   0.20955E-02   0.28340E-02   0.28340E-02
   0.10010E+02   0.24316E-02   0.24316E-02   0.33900E-02   0.33900E-02
   0.13346E+02   0.72489E-02   0.72489E-02   0.10047E-01   0.10047E-01
   0.16683E+02   0.51824E-02   0.51824E-02   0.75853E-02   0.75853E-02
   0.20020E+02   0.53341E-02   0.53341E-02   0.81994E-02   0.81994E-02
   0.23356E+02   0.50850E-02   0.50850E-02   0.81931E-02   0.81931E-02
   0.26693E+02   0.49956E-02   0.49956E-02   0.84404E-02   0.84404E-02
   0.30030E+02   0.52698E-02   0.52698E-02   0.93656E-02   0.93656E-02
   0.33366E+02   0.51669E-02   0.51669E-02   0.97791E-02   0.97791E-02
   0.36703E+02   0.51200E-02   0.51200E-02   0.10500E-01   0.10500E-01
   0.40039E+02   0.52463E-02   0.52463E-02   0.11685E-01   0.11685E-01
   0.43376E+02   0.55183E-02   0.55183E-02   0.13319E-01   0.13319E-01
   0.46713E+02   0.52944E-02   0.52944E-02   0.14335E-01   0.14335E-01
   0.50049E+02   0.54042E-02   0.54042E-02   0.16460E-01   0.16460E-01
   0.53386E+02   0.56239E-02   0.56239E-02   0.20774E-01   0.20774E-01
   0.56722E+02   0.58967E-02   0.58967E-02   0.28082E-01   0.28082E-01
   0.60059E+02   0.85507E-02   0.85507E-02   0.69965E-01   0.69965E-01
   0.63396E+02   0.25943E-02   0.25943E-02   0.34834E-02   0.34834E-02
   0.66732E+02   0.29785E-02   0.29785E-02   0.40145E-02   0.40145E-02
   0.70069E+02   0.34593E-02   0.34593E-02   0.46778E-02   0.46778E-02
   0.73405E+02   0.50768E-02   0.50768E-02   0.68868E-02   0.68868E-02
   0.76742E+02   0.43843E-02   0.43843E-02   0.59299E-02   0.59299E-02
   0.80079E+02   0.36842E-02   0.36842E-02   0.49743E-02   0.49743E-02
   0.83415E+02   0.35458E-02   0.35458E-02   0.47924E-02   0.47924E-02
   0.86752E+02   0.31236E-02   0.31236E-02   0.42385E-02   0.42385E-02
   0.90089E+02   0.29781E-02   0.29781E-02   0.40615E-02   0.40615E-02
   0.93425E+02   0.37760E-02   0.37760E-02   0.62786E-02   0.62786E-02
   0.96762E+02   0.37785E-02   0.37785E-02   0.63407E-02   0.63407E-02
   0.10010E+03   0.38494E-02   0.38494E-02   0.66717E-02   0.66717E-02
   0.10344E+03   0.37301E-02   0.37301E-02   0.64749E-02   0.64749E-02
   0.10677E+03   0.36698E-02   0.36698E-02   0.63724E-02   0.63724E-02
   0.11011E+03   0.38827E-02   0.38827E-02   0.70603E-02   0.70603E-02
   0.11344E+03   0.13198E-01   0.13198E-01   0.66614E-02   0.66614E-02
   0.11678E+03   0.27540E-01   0.27540E-01   0.82947E-02   0.82947E-02
   0.12012E+03   0.48758E-01   0.48758E-01   0.12173E-01   0.12173E-01
   0.12345E+03   0.32333E-01   0.32333E-01   0.12628E-01   0.12628E-01
   0.12679E+03   0.24779E-01   0.24779E-01   0.13109E-01   0.13109E-01
   0.13013E+03   0.20902E-01   0.20902E-01   0.13558E-01   0.13558E-01
   0.13346E+03   0.19001E-01   0.19001E-01   0.14355E-01   0.14355E-01
   0.13680E+03   0.18052E-01   0.18052E-01   0.15362E-01   0.15362E-01
   0.14014E+03   0.18206E-01   0.18206E-01   0.17025E-01   0.17025E-01
   0.14347E+03   0.17706E-01   0.17706E-01   0.17998E-01   0.17998E-01
   0.14681E+03   0.17092E-01   0.17092E-01   0.19356E-01   0.19356E-01
   0.15015E+03   0.16791E-01   0.16791E-01   0.23651E-01   0.23651E-01
   0.15348E+03   0.13853E-01   0.13853E-01   0.19320E-01   0.19320E-01
   0.15682E+03   0.94435E-02   0.94435E-02   0.15501E-01   0.15501E-01
   0.16016E+03   0.52786E-02   0.52786E-02   0.11458E-01   0.11458E-01
   0.16349E+03   0.19749E-02   0.19749E-02   0.48843E-02   0.48843E-02
   0.16683E+03   0.21701E-02   0.21701E-02   0.55199E-02   0.55199E-02
   0.17017E+03   0.22264E-02   0.22264E-02   0.59298E-02   0.59298E-02
   0.17350E+03   0.22147E-02   0.22147E-02   0.61867E-02   0.61867E-02
   0.17684E+03   0.24087E-02   0.24087E-02   0.71039E-02   0.71039E-02
   0.18018E+03   0.24697E-02   0.24697E-02   0.78402E-02   0.78402E-02
   0.18351E+03   0.25492E-02   0.25492E-02   0.11295E-01   0.11295E-01
   0.18685E+03   0.29170E-02   0.29170E-02   0.15678E-01   0.15678E-01
   0.19019E+03   0.35120E-02   0.35120E-02   0.25463E-01   0.25463E-01
   0.19352E+03   0.18694E-02   0.18694E-02   0.10698E-01   0.10698E-01
   0.19686E+03   0.16468E-02   0.16468E-02   0.11208E-01   0.11208E-01
   0.20020E+03   0.13604E-02   0.13604E-02   0.11812E-01   0.11812E-01
   0.20353E+03   0.54000E-02   0.54000E-02   0.33076E-01   0.33076E-01
   0.20687E+03   0.26613E-02   0.26613E-02   0.21403E-01   0.21403E-01
   0.21021E+03   0.00000E+00   0.00000E+00   0.00000E+00   0.00000E+00
   0.21354E+03   0.00000E+00   0.00000E+00   0.00000E+00   0.00000E+00
   0.21688E+03   0.00000E+00   0.00000E+00   0.00000E+00   0.00000E+00
   0.22022E+03   0.00000E+00   0.00000E+00   0.00000E+00   0.00000E+00
   0.22355E+03   0.00000E+00   0.00000E+00   0.00000E+00   0.00000E+00
   0.22689E+03   0.00000E+00   0.00000E+00   0.00000E+00   0.00000E+00
   0.23023E+03   0.00000E+00   0.00000E+00   0.00000E+00   0.00000E+00
   0.23356E+03   0.15952E-01   0.15952E-01   0.56387E-02   0.56387E-02
   0.23690E+03   0.14683E-01   0.14683E-01   0.60861E-02   0.60861E-02
   0.24024E+03   0.15173E-01   0.15173E-01   0.66705E-02   0.66705E-02
   0.24357E+03   0.36060E-01   0.36060E-01   0.26351E-01   0.26351E-01
   0.24691E+03   0.29951E-01   0.29951E-01   0.22746E-01   0.22746E-01
   0.25025E+03   0.19987E-01   0.19987E-01   0.13861E-01   0.13861E-01
   0.25358E+03   0.14567E-01   0.14567E-01   0.99330E-02   0.99330E-02
   0.25692E+03   0.11672E-01   0.11672E-01   0.80145E-02   0.80145E-02
   0.26026E+03   0.53175E-01   0.53175E-01   0.21112E-01   0.21112E-01
   0.26359E+03   0.34686E-01   0.34686E-01   0.12946E-01   0.12946E-01
   0.26693E+03   0.36187E-01   0.36187E-01   0.15953E-01   0.15953E-01
   0.27027E+03   0.18746E-01   0.18746E-01   0.49294E-02   0.49294E-02
   0.27360E+03   0.21690E-01   0.21690E-01   0.60207E-02   0.60207E-02
   0.27694E+03   0.86841E-02   0.86841E-02   0.58798E-03   0.58798E-03
   0.28028E+03   0.11063E-01   0.11063E-01   0.87034E-03   0.87034E-03
   0.28361E+03   0.16473E-01   0.16473E-01   0.13909E-02   0.13909E-02
   0.28695E+03   0.12074E-01   0.12074E-01   0.19446E-02   0.19446E-02
   0.29029E+03   0.10989E-01   0.10989E-01   0.23799E-02   0.23799E-02
   0.29362E+03   0.13598E-01   0.13598E-01   0.36470E-02   0.36470E-02
   0.29696E+03   0.12563E-01   0.12563E-01   0.39887E-02   0.39887E-02
   0.30030E+03   0.13817E-01   0.13817E-01   0.50288E-02   0.50288E-02
   0.30363E+03   0.00000E+00   0.00000E+00   0.00000E+00   0.00000E+00
   0.30697E+03   0.00000E+00   0.00000E+00   0.00000E+00   0.00000E+00
   0.31031E+03   0.00000E+00   0.00000E+00   0.00000E+00   0.00000E+00
   0.31364E+03   0.00000E+00   0.00000E+00   0.00000E+00   0.00000E+00
   0.31698E+03   0.00000E+00   0.00000E+00   0.00000E+00   0.00000E+00
   0.32031E+03   0.00000E+00   0.00000E+00   0.00000E+00   0.00000E+00
   0.32365E+03   0.00000E+00   0.00000E+00   0.00000E+00   0.00000E+00
   0.32699E+03   0.00000E+00   0.00000E+00   0.00000E+00   0.00000E+00
   0.33032E+03   0.00000E+00   0.00000E+00   0.00000E+00   0.00000E+00
   0.33366E+03   0.00000E+00   0.00000E+00   0.00000E+00   0.00000E+00
