  904

    1
0.0000000000e+00 0.0000000000e+00 0.0000000000e+00
0.0000000000e+00 0.0000000000e+00 0.0000000000e+00
     1      1      1
 1  1  1     0.0000000000e+00
 1  1  2    -1.3171459619e+02
 1  1  3     5.0913824457e-02
 1  2  1    -1.3171459619e+02
 1  2  2     0.0000000000e+00
 1  2  3     0.0000000000e+00
 1  3  1     5.0913824457e-02
 1  3  2     0.0000000000e+00
 1  3  3     0.0000000000e+00
 2  1  1    -1.3171459619e+02
 2  1  2     0.0000000000e+00
 2  1  3     0.0000000000e+00
 2  2  1     0.0000000000e+00
 2  2  2     1.3171459619e+02
 2  2  3     5.0913824457e-02
 2  3  1     0.0000000000e+00
 2  3  2     5.0913824457e-02
 2  3  3     0.0000000000e+00
 3  1  1     5.0913824457e-02
 3  1  2     0.0000000000e+00
 3  1  3     0.0000000000e+00
 3  2  1     0.0000000000e+00
 3  2  2     5.0913824457e-02
 3  2  3     0.0000000000e+00
 3  3  1     0.0000000000e+00
 3  3  2     0.0000000000e+00
 3  3  3    -1.6483544769e-01

    2
0.0000000000e+00 0.0000000000e+00 0.0000000000e+00
0.0000000000e+00 0.0000000000e+00 0.0000000000e+00
     1      1      2
 1  1  1     0.0000000000e+00
 1  1  2    -4.8850891464e-02
 1  1  3     1.2712809457e-01
 1  2  1    -4.8850891464e-02
 1  2  2     0.0000000000e+00
 1  2  3     0.0000000000e+00
 1  3  1     1.2647291155e-01
 1  3  2     0.0000000000e+00
 1  3  3     0.0000000000e+00
 2  1  1    -4.8850891464e-02
 2  1  2     0.0000000000e+00
 2  1  3     0.0000000000e+00
 2  2  1     0.0000000000e+00
 2  2  2     4.8850891464e-02
 2  2  3     1.2712809457e-01
 2  3  1     0.0000000000e+00
 2  3  2     1.2647291155e-01
 2  3  3     0.0000000000e+00
 3  1  1     1.2647291155e-01
 3  1  2     0.0000000000e+00
 3  1  3     0.0000000000e+00
 3  2  1     0.0000000000e+00
 3  2  2     1.2647291155e-01
 3  2  3     0.0000000000e+00
 3  3  1     0.0000000000e+00
 3  3  2     0.0000000000e+00
 3  3  3    -1.4546787155e-01

    3
0.0000000000e+00 0.0000000000e+00 0.0000000000e+00
0.0000000000e+00 0.0000000000e+00 0.0000000000e+00
     1      1      3
 1  1  1     0.0000000000e+00
 1  1  2     7.3731491234e+00
 1  1  3    -5.0482481864e-03
 1  2  1     7.8828801600e+00
 1  2  2     0.0000000000e+00
 1  2  3     0.0000000000e+00
 1  3  1     1.1393979001e-03
 1  3  2     0.0000000000e+00
 1  3  3     0.0000000000e+00
 2  1  1     7.8828801600e+00
 2  1  2     0.0000000000e+00
 2  1  3     0.0000000000e+00
 2  2  1     0.0000000000e+00
 2  2  2    -1.5304503388e+02
 2  2  3    -1.1044725615e-01
 2  3  1     0.0000000000e+00
 2  3  2    -1.2051788787e-01
 2  3  3     9.9260590698e+00
 3  1  1     1.1393979001e-03
 3  1  2     0.0000000000e+00
 3  1  3     0.0000000000e+00
 3  2  1     0.0000000000e+00
 3  2  2    -1.2051788787e-01
 3  2  3     9.9260590698e+00
 3  3  1     0.0000000000e+00
 3  3  2     9.7278354775e+00
 3  3  3     1.3403393860e-01

    4
0.0000000000e+00 0.0000000000e+00 0.0000000000e+00
2.5165745612e+00 0.0000000000e+00 0.0000000000e+00
     1      1      1
 1  1  1    -6.2060004979e+00
 1  1  2     3.6457269093e-01
 1  1  3    -3.1065632998e-02
 1  2  1     1.5269226547e+00
 1  2  2     1.4527831719e+00
 1  2  3     3.9814557477e-02
 1  3  1     6.8799629814e-03
 1  3  2    -6.4891384788e-04
 1  3  3     1.7003630511e+00
 2  1  1     1.5269226547e+00
 2  1  2     1.4527831719e+00
 2  1  3     3.9814557477e-02
 2  2  1     1.6691142577e+00
 2  2  2     1.7175822372e+00
 2  2  3     1.5715952746e-02
 2  3  1    -5.9890119541e-03
 2  3  2    -4.9683776880e-03
 2  3  3     6.3409682149e-01
 3  1  1     6.8799629814e-03
 3  1  2    -6.4891384788e-04
 3  1  3     1.7003630511e+00
 3  2  1    -5.9890119541e-03
 3  2  2    -4.9683776880e-03
 3  2  3     6.3409682149e-01
 3  3  1     3.9975890346e-02
 3  3  2     3.4585729721e-01
 3  3  3     8.9853246628e-03

    5
0.0000000000e+00 0.0000000000e+00 0.0000000000e+00
2.5165745612e+00 0.0000000000e+00 0.0000000000e+00
     1      1      3
 1  1  1    -6.5703715275e-01
 1  1  2     5.5375497073e-01
 1  1  3    -5.7755422196e-03
 1  2  1    -5.5751304407e-01
 1  2  2    -8.6060327174e-01
 1  2  3    -1.4738481924e-02
 1  3  1     3.1641652103e-03
 1  3  2     1.3231477244e-03
 1  3  3    -1.4545121291e-01
 2  1  1    -5.5751304407e-01
 2  1  2    -8.6060327174e-01
 2  1  3    -1.4738481924e-02
 2  2  1     1.0641693907e+00
 2  2  2    -3.1869706354e-01
 2  2  3     1.1242990793e-02
 2  3  1     1.3231477244e-03
 2  3  2     1.6363258206e-03
 2  3  3    -8.3976296928e-02
 3  1  1     3.1641652103e-03
 3  1  2     1.3231477244e-03
 3  1  3    -1.4545121291e-01
 3  2  1     1.3231477244e-03
 3  2  2     1.6363258206e-03
 3  2  3    -8.3976296928e-02
 3  3  1    -4.1048544394e-01
 3  3  2    -2.3699388156e-01
 3  3  3    -2.4914597247e-02

    6
0.0000000000e+00 0.0000000000e+00 0.0000000000e+00
-2.5165745612e+00 0.0000000000e+00 0.0000000000e+00
     1      1      1
 1  1  1     6.2060004979e+00
 1  1  2     3.6457269093e-01
 1  1  3    -3.1065632998e-02
 1  2  1     1.5269226547e+00
 1  2  2    -1.4527831719e+00
 1  2  3    -3.9814557477e-02
 1  3  1     6.8799629814e-03
 1  3  2     6.4891384788e-04
 1  3  3    -1.7003630511e+00
 2  1  1     1.5269226547e+00
 2  1  2    -1.4527831719e+00
 2  1  3    -3.9814557477e-02
 2  2  1    -1.6691142577e+00
 2  2  2     1.7175822372e+00
 2  2  3     1.5715952746e-02
 2  3  1     5.9890119541e-03
 2  3  2    -4.9683776880e-03
 2  3  3     6.3409682149e-01
 3  1  1     6.8799629814e-03
 3  1  2     6.4891384788e-04
 3  1  3    -1.7003630511e+00
 3  2  1     5.9890119541e-03
 3  2  2    -4.9683776880e-03
 3  2  3     6.3409682149e-01
 3  3  1    -3.9975890346e-02
 3  3  2     3.4585729721e-01
 3  3  3     8.9853246628e-03

    7
0.0000000000e+00 0.0000000000e+00 0.0000000000e+00
-2.5165745612e+00 0.0000000000e+00 0.0000000000e+00
     1      1      3
 1  1  1     6.5703715275e-01
 1  1  2     5.5375497073e-01
 1  1  3    -5.7755422196e-03
 1  2  1    -5.5751304407e-01
 1  2  2     8.6060327174e-01
 1  2  3     1.4738481924e-02
 1  3  1     3.1641652103e-03
 1  3  2    -1.3231477244e-03
 1  3  3     1.4545121291e-01
 2  1  1    -5.5751304407e-01
 2  1  2     8.6060327174e-01
 2  1  3     1.4738481924e-02
 2  2  1    -1.0641693907e+00
 2  2  2    -3.1869706354e-01
 2  2  3     1.1242990793e-02
 2  3  1    -1.3231477244e-03
 2  3  2     1.6363258206e-03
 2  3  3    -8.3976296928e-02
 3  1  1     3.1641652103e-03
 3  1  2    -1.3231477244e-03
 3  1  3     1.4545121291e-01
 3  2  1    -1.3231477244e-03
 3  2  2     1.6363258206e-03
 3  2  3    -8.3976296928e-02
 3  3  1     4.1048544394e-01
 3  3  2    -2.3699388156e-01
 3  3  3    -2.4914597247e-02

    8
0.0000000000e+00 0.0000000000e+00 0.0000000000e+00
-1.2582872806e+00 2.1794175006e+00 0.0000000000e+00
     1      1      1
 1  1  1    -2.7954667585e+00
 1  1  2    -4.3306351079e-01
 1  1  3     3.8500974525e-02
 1  2  1    -1.2015867087e+00
 1  2  2     2.3622517624e+00
 1  2  3     3.4974210363e-04
 1  3  1    -4.8805987071e-03
 1  3  2    -8.0095150261e-04
 1  3  3    -1.3993254814e+00
 2  1  1    -1.2015867087e+00
 2  1  2     2.3622517624e+00
 2  1  3     3.4974210363e-04
 2  2  1     3.2607108161e+00
 2  2  2    -4.5370726913e+00
 2  2  3    -5.3850654777e-02
 2  3  1    -6.1410496088e-03
 2  3  2     6.7921840005e-03
 2  3  3     1.1555091872e+00
 3  1  1    -4.8805987071e-03
 3  1  2    -8.0095150261e-04
 3  1  3    -1.3993254814e+00
 3  2  1    -6.1410496088e-03
 3  2  2     6.7921840005e-03
 3  2  3     1.1555091872e+00
 3  3  1    -3.1950915064e-01
 3  3  2    -1.3830851203e-01
 3  3  3     8.9853246628e-03

    9
0.0000000000e+00 0.0000000000e+00 0.0000000000e+00
-1.2582872806e+00 2.1794175006e+00 0.0000000000e+00
     1      1      3
 1  1  1     5.2645794572e-01
 1  1  2    -6.9974314849e-01
 1  1  3    -6.4651360938e-03
 1  2  1    -2.1982215543e-01
 1  2  2     1.2743112666e-01
 1  2  3    -1.4539127566e-03
 1  3  1     1.3172149129e-03
 1  3  2     1.9074144253e-03
 1  3  3     7.4863361714e-02
 2  1  1    -2.1982215543e-01
 2  1  2     1.2743112666e-01
 2  1  3    -1.4539127566e-03
 2  2  1     2.3847724218e-01
 2  2  2     6.8983836175e-01
 2  2  3     1.4502359473e-02
 2  3  1     7.4827477665e-04
 2  3  2    -5.5757750444e-03
 2  3  3    -1.8068322950e-01
 3  1  1     1.3172149129e-03
 3  1  2     1.9074144253e-03
 3  1  3     7.4863361714e-02
 3  2  1     7.4827477665e-04
 3  2  2    -5.5757750444e-03
 3  2  3    -1.8068322950e-01
 3  3  1     3.9996192628e-01
 3  3  2    -4.2059855397e-01
 3  3  3    -1.1303271569e-02

   10
0.0000000000e+00 0.0000000000e+00 0.0000000000e+00
1.2582872806e+00 2.1794175006e+00 0.0000000000e+00
     1      1      1
 1  1  1     2.7954667585e+00
 1  1  2    -4.3306351079e-01
 1  1  3     3.8500974525e-02
 1  2  1    -1.2015867087e+00
 1  2  2    -2.3622517624e+00
 1  2  3    -3.4974210363e-04
 1  3  1    -4.8805987071e-03
 1  3  2     8.0095150261e-04
 1  3  3     1.3993254814e+00
 2  1  1    -1.2015867087e+00
 2  1  2    -2.3622517624e+00
 2  1  3    -3.4974210363e-04
 2  2  1    -3.2607108161e+00
 2  2  2    -4.5370726913e+00
 2  2  3    -5.3850654777e-02
 2  3  1     6.1410496088e-03
 2  3  2     6.7921840005e-03
 2  3  3     1.1555091872e+00
 3  1  1    -4.8805987071e-03
 3  1  2     8.0095150261e-04
 3  1  3     1.3993254814e+00
 3  2  1     6.1410496088e-03
 3  2  2     6.7921840005e-03
 3  2  3     1.1555091872e+00
 3  3  1     3.1950915064e-01
 3  3  2    -1.3830851203e-01
 3  3  3     8.9853246628e-03

   11
0.0000000000e+00 0.0000000000e+00 0.0000000000e+00
1.2582872806e+00 2.1794175006e+00 0.0000000000e+00
     1      1      3
 1  1  1    -5.2645794572e-01
 1  1  2    -6.9974314849e-01
 1  1  3    -6.4651360938e-03
 1  2  1    -2.1982215543e-01
 1  2  2    -1.2743112666e-01
 1  2  3     1.4539127566e-03
 1  3  1     1.3172149129e-03
 1  3  2    -1.9074144253e-03
 1  3  3    -7.4863361714e-02
 2  1  1    -2.1982215543e-01
 2  1  2    -1.2743112666e-01
 2  1  3     1.4539127566e-03
 2  2  1    -2.3847724218e-01
 2  2  2     6.8983836175e-01
 2  2  3     1.4502359473e-02
 2  3  1    -7.4827477665e-04
 2  3  2    -5.5757750444e-03
 2  3  3    -1.8068322950e-01
 3  1  1     1.3172149129e-03
 3  1  2    -1.9074144253e-03
 3  1  3    -7.4863361714e-02
 3  2  1    -7.4827477665e-04
 3  2  2    -5.5757750444e-03
 3  2  3    -1.8068322950e-01
 3  3  1    -3.9996192628e-01
 3  3  2    -4.2059855397e-01
 3  3  3    -1.1303271569e-02

   12
0.0000000000e+00 0.0000000000e+00 0.0000000000e+00
2.5165745612e+00 -4.3588350011e+00 0.0000000000e+00
     1      1      3
 1  1  1     4.5218809222e-01
 1  1  2    -1.2239040391e-01
 1  1  3     8.0013601991e-03
 1  2  1    -4.5851965747e-01
 1  2  2     2.8180241883e-01
 1  2  3    -9.8061482856e-03
 1  3  1    -2.7025803984e-03
 1  3  2     3.0691046817e-03
 1  3  3    -1.1904458593e-01
 2  1  1    -4.5851965747e-01
 2  1  2     2.8180241883e-01
 2  1  3    -9.8061482856e-03
 2  2  1    -7.8298295211e-02
 2  2  2     7.8979610225e-01
 2  2  3     3.5863179978e-05
 2  3  1     4.2282443304e-03
 2  3  2    -1.5559797332e-03
 2  3  3     1.5517518781e-01
 3  1  1    -2.7025803984e-03
 3  1  2     3.0691046817e-03
 3  1  3    -1.1904458593e-01
 3  2  1     4.2282443304e-03
 3  2  2    -1.5559797332e-03
 3  2  3     1.5517518781e-01
 3  3  1    -1.6426806940e-01
 3  3  2     5.5667646569e-01
 3  3  3    -1.1303271569e-02

   13
0.0000000000e+00 0.0000000000e+00 0.0000000000e+00
-2.5165745612e+00 -4.3588350011e+00 0.0000000000e+00
     1      1      3
 1  1  1    -4.5218809222e-01
 1  1  2    -1.2239040391e-01
 1  1  3     8.0013601991e-03
 1  2  1    -4.5851965747e-01
 1  2  2    -2.8180241883e-01
 1  2  3     9.8061482856e-03
 1  3  1    -2.7025803984e-03
 1  3  2    -3.0691046817e-03
 1  3  3     1.1904458593e-01
 2  1  1    -4.5851965747e-01
 2  1  2    -2.8180241883e-01
 2  1  3     9.8061482856e-03
 2  2  1     7.8298295211e-02
 2  2  2     7.8979610225e-01
 2  2  3     3.5863179978e-05
 2  3  1    -4.2282443304e-03
 2  3  2    -1.5559797332e-03
 2  3  3     1.5517518781e-01
 3  1  1    -2.7025803984e-03
 3  1  2    -3.0691046817e-03
 3  1  3     1.1904458593e-01
 3  2  1    -4.2282443304e-03
 3  2  2    -1.5559797332e-03
 3  2  3     1.5517518781e-01
 3  3  1     1.6426806940e-01
 3  3  2     5.5667646569e-01
 3  3  3    -1.1303271569e-02

   14
0.0000000000e+00 0.0000000000e+00 0.0000000000e+00
0.0000000000e+00 -4.3588350011e+00 0.0000000000e+00
     1      1      3
 1  1  1     0.0000000000e+00
 1  1  2    -1.2894404819e+00
 1  1  3     1.9752257300e-02
 1  2  1     9.3309554774e-01
 1  2  2     0.0000000000e+00
 1  2  3     0.0000000000e+00
 1  3  1     8.7240612577e-04
 1  3  2     0.0000000000e+00
 1  3  3     0.0000000000e+00
 2  1  1     9.3309554774e-01
 2  1  2     0.0000000000e+00
 2  1  3     0.0000000000e+00
 2  2  1     0.0000000000e+00
 2  2  2     8.1932466749e-01
 2  2  3    -1.4284808726e-02
 2  3  1     0.0000000000e+00
 2  3  2     3.9280849052e-03
 2  3  3     1.6795259386e-01
 3  1  1     8.7240612577e-04
 3  1  2     0.0000000000e+00
 3  1  3     0.0000000000e+00
 3  2  1     0.0000000000e+00
 3  2  2     3.9280849052e-03
 3  2  3     1.6795259386e-01
 3  3  1     0.0000000000e+00
 3  3  2     4.7398776311e-01
 3  3  3    -2.4914597247e-02

   15
0.0000000000e+00 0.0000000000e+00 0.0000000000e+00
1.2582872806e+00 -2.1794175006e+00 0.0000000000e+00
     1      1      1
 1  1  1    -9.1595643183e-01
 1  1  2     1.3441176422e+00
 1  1  3    -3.0459861905e-02
 1  2  1     9.5029087633e-01
 1  2  2    -4.2704758903e+00
 1  2  3     4.0164299580e-02
 1  3  1     8.6801366582e-04
 1  3  2    -9.4600125098e-03
 1  3  3     3.0103756970e-01
 2  1  1     9.5029087633e-01
 2  1  2    -4.2704758903e+00
 2  1  3     4.0164299580e-02
 2  2  1    -3.1556857506e+00
 2  2  2     1.5438636317e+00
 2  2  3     1.5110181653e-02
 2  3  1    -4.1199144036e-03
 2  3  2     1.0435716276e-03
 2  3  3    -1.7896060087e+00
 3  1  1     8.6801366582e-04
 3  1  2    -9.4600125098e-03
 3  1  3     3.0103756970e-01
 3  2  1    -4.1199144036e-03
 3  2  2     1.0435716276e-03
 3  2  3    -1.7896060087e+00
 3  3  1    -2.7953326030e-01
 3  3  2    -2.0754878518e-01
 3  3  3     8.9853246628e-03

   16
0.0000000000e+00 0.0000000000e+00 0.0000000000e+00
1.2582872806e+00 -2.1794175006e+00 0.0000000000e+00
     1      1      3
 1  1  1    -9.4395944602e+01
 1  1  2     6.2382404186e+01
 1  1  3    -8.4097504160e-02
 1  2  1     6.2127538668e+01
 1  2  2    -3.1318168192e+01
 1  2  3     4.5639109215e-02
 1  3  1    -9.0103566426e-02
 1  3  2     5.2679150015e-02
 1  3  3     8.5962193139e+00
 2  1  1     6.2127538668e+01
 2  1  2    -3.1318168192e+01
 2  1  3     4.5639109215e-02
 2  2  1    -3.1759608218e+01
 2  2  2     1.0453538194e+01
 2  2  3    -3.1398000177e-02
 2  3  1     5.2679150015e-02
 2  3  2    -2.9274923542e-02
 2  3  3    -4.9630295349e+00
 3  1  1    -9.0103566426e-02
 3  1  2     5.2679150015e-02
 3  1  3     8.5962193139e+00
 3  2  1     5.2679150015e-02
 3  2  2    -2.9274923542e-02
 3  2  3    -4.9630295349e+00
 3  3  1     8.4245526474e+00
 3  3  2    -4.8639177387e+00
 3  3  3     1.3403393860e-01

   17
0.0000000000e+00 0.0000000000e+00 0.0000000000e+00
3.7748618419e+00 -2.1794175006e+00 0.0000000000e+00
     1      1      3
 1  1  1    -4.9431015828e-02
 1  1  2    -5.4978581343e-01
 1  1  3     1.0519610963e-02
 1  2  1    -6.9357755292e-01
 1  2  2     1.2953245450e-01
 1  2  3    -8.3522355290e-03
 1  3  1    -5.0024747118e-03
 1  3  2     2.9003997294e-03
 1  3  3    -1.9390794764e-01
 2  1  1    -6.9357755292e-01
 2  1  2     1.2953245450e-01
 2  1  3    -8.3522355290e-03
 2  2  1    -3.4161437506e-01
 2  2  2    -1.0771509817e-01
 2  2  3    -2.4823875842e-03
 2  3  1     1.7412600807e-03
 2  3  2     7.4391458026e-04
 2  3  3     2.5508041693e-02
 3  1  1    -5.0024747118e-03
 3  1  2     2.9003997294e-03
 3  1  3    -1.9390794764e-01
 3  2  1     1.7412600807e-03
 3  2  2     7.4391458026e-04
 3  2  3     2.5508041693e-02
 3  3  1    -5.6422999567e-01
 3  3  2    -1.3607791172e-01
 3  3  3    -1.1303271569e-02

   18
0.0000000000e+00 0.0000000000e+00 0.0000000000e+00
-3.7748618419e+00 -2.1794175006e+00 0.0000000000e+00
     1      1      3
 1  1  1     4.9431015828e-02
 1  1  2    -5.4978581343e-01
 1  1  3     1.0519610963e-02
 1  2  1    -6.9357755292e-01
 1  2  2    -1.2953245450e-01
 1  2  3     8.3522355290e-03
 1  3  1    -5.0024747118e-03
 1  3  2    -2.9003997294e-03
 1  3  3     1.9390794764e-01
 2  1  1    -6.9357755292e-01
 2  1  2    -1.2953245450e-01
 2  1  3     8.3522355290e-03
 2  2  1     3.4161437506e-01
 2  2  2    -1.0771509817e-01
 2  2  3    -2.4823875842e-03
 2  3  1    -1.7412600807e-03
 2  3  2     7.4391458026e-04
 2  3  3     2.5508041693e-02
 3  1  1    -5.0024747118e-03
 3  1  2    -2.9003997294e-03
 3  1  3     1.9390794764e-01
 3  2  1    -1.7412600807e-03
 3  2  2     7.4391458026e-04
 3  2  3     2.5508041693e-02
 3  3  1     5.6422999567e-01
 3  3  2    -1.3607791172e-01
 3  3  3    -1.1303271569e-02

   19
0.0000000000e+00 0.0000000000e+00 0.0000000000e+00
-1.2582872806e+00 -2.1794175006e+00 0.0000000000e+00
     1      1      1
 1  1  1     9.1595643183e-01
 1  1  2     1.3441176422e+00
 1  1  3    -3.0459861905e-02
 1  2  1     9.5029087633e-01
 1  2  2     4.2704758903e+00
 1  2  3    -4.0164299580e-02
 1  3  1     8.6801366582e-04
 1  3  2     9.4600125098e-03
 1  3  3    -3.0103756970e-01
 2  1  1     9.5029087633e-01
 2  1  2     4.2704758903e+00
 2  1  3    -4.0164299580e-02
 2  2  1     3.1556857506e+00
 2  2  2     1.5438636317e+00
 2  2  3     1.5110181653e-02
 2  3  1     4.1199144036e-03
 2  3  2     1.0435716276e-03
 2  3  3    -1.7896060087e+00
 3  1  1     8.6801366582e-04
 3  1  2     9.4600125098e-03
 3  1  3    -3.0103756970e-01
 3  2  1     4.1199144036e-03
 3  2  2     1.0435716276e-03
 3  2  3    -1.7896060087e+00
 3  3  1     2.7953326030e-01
 3  3  2    -2.0754878518e-01
 3  3  3     8.9853246628e-03

   20
0.0000000000e+00 0.0000000000e+00 0.0000000000e+00
-1.2582872806e+00 -2.1794175006e+00 0.0000000000e+00
     1      1      3
 1  1  1     9.4395944602e+01
 1  1  2     6.2382404186e+01
 1  1  3    -8.4097504160e-02
 1  2  1     6.2127538668e+01
 1  2  2     3.1318168192e+01
 1  2  3    -4.5639109215e-02
 1  3  1    -9.0103566426e-02
 1  3  2    -5.2679150015e-02
 1  3  3    -8.5962193139e+00
 2  1  1     6.2127538668e+01
 2  1  2     3.1318168192e+01
 2  1  3    -4.5639109215e-02
 2  2  1     3.1759608218e+01
 2  2  2     1.0453538194e+01
 2  2  3    -3.1398000177e-02
 2  3  1    -5.2679150015e-02
 2  3  2    -2.9274923542e-02
 2  3  3    -4.9630295349e+00
 3  1  1    -9.0103566426e-02
 3  1  2    -5.2679150015e-02
 3  1  3    -8.5962193139e+00
 3  2  1    -5.2679150015e-02
 3  2  2    -2.9274923542e-02
 3  2  3    -4.9630295349e+00
 3  3  1    -8.4245526474e+00
 3  3  2    -4.8639177387e+00
 3  3  3     1.3403393860e-01

   21
0.0000000000e+00 0.0000000000e+00 0.0000000000e+00
0.0000000000e+00 0.0000000000e+00 0.0000000000e+00
     1      2      1
 1  1  1     0.0000000000e+00
 1  1  2    -4.8850891464e-02
 1  1  3     1.2647291155e-01
 1  2  1    -4.8850891464e-02
 1  2  2     0.0000000000e+00
 1  2  3     0.0000000000e+00
 1  3  1     1.2712809457e-01
 1  3  2     0.0000000000e+00
 1  3  3     0.0000000000e+00
 2  1  1    -4.8850891464e-02
 2  1  2     0.0000000000e+00
 2  1  3     0.0000000000e+00
 2  2  1     0.0000000000e+00
 2  2  2     4.8850891464e-02
 2  2  3     1.2647291155e-01
 2  3  1     0.0000000000e+00
 2  3  2     1.2712809457e-01
 2  3  3     0.0000000000e+00
 3  1  1     1.2647291155e-01
 3  1  2     0.0000000000e+00
 3  1  3     0.0000000000e+00
 3  2  1     0.0000000000e+00
 3  2  2     1.2647291155e-01
 3  2  3     0.0000000000e+00
 3  3  1     0.0000000000e+00
 3  3  2     0.0000000000e+00
 3  3  3    -1.4546787155e-01

   22
0.0000000000e+00 0.0000000000e+00 0.0000000000e+00
0.0000000000e+00 0.0000000000e+00 0.0000000000e+00
     1      2      2
 1  1  1     0.0000000000e+00
 1  1  2     4.8850891464e-02
 1  1  3    -1.2647291155e-01
 1  2  1     4.8850891464e-02
 1  2  2     0.0000000000e+00
 1  2  3     0.0000000000e+00
 1  3  1    -1.2647291155e-01
 1  3  2     0.0000000000e+00
 1  3  3     0.0000000000e+00
 2  1  1     4.8850891464e-02
 2  1  2     0.0000000000e+00
 2  1  3     0.0000000000e+00
 2  2  1     0.0000000000e+00
 2  2  2    -4.8850891464e-02
 2  2  3    -1.2647291155e-01
 2  3  1     0.0000000000e+00
 2  3  2    -1.2647291155e-01
 2  3  3     0.0000000000e+00
 3  1  1    -1.2712809457e-01
 3  1  2     0.0000000000e+00
 3  1  3     0.0000000000e+00
 3  2  1     0.0000000000e+00
 3  2  2    -1.2712809457e-01
 3  2  3     0.0000000000e+00
 3  3  1     0.0000000000e+00
 3  3  2     0.0000000000e+00
 3  3  3     1.4546787155e-01

   23
0.0000000000e+00 0.0000000000e+00 0.0000000000e+00
0.0000000000e+00 0.0000000000e+00 0.0000000000e+00
     1      3      1
 1  1  1     0.0000000000e+00
 1  1  2     7.8828801600e+00
 1  1  3     1.1393979001e-03
 1  2  1     7.3731491234e+00
 1  2  2     0.0000000000e+00
 1  2  3     0.0000000000e+00
 1  3  1    -5.0482481864e-03
 1  3  2     0.0000000000e+00
 1  3  3     0.0000000000e+00
 2  1  1     7.8828801600e+00
 2  1  2     0.0000000000e+00
 2  1  3     0.0000000000e+00
 2  2  1     0.0000000000e+00
 2  2  2    -1.5304503388e+02
 2  2  3    -1.2051788787e-01
 2  3  1     0.0000000000e+00
 2  3  2    -1.1044725615e-01
 2  3  3     9.9260590698e+00
 3  1  1     1.1393979001e-03
 3  1  2     0.0000000000e+00
 3  1  3     0.0000000000e+00
 3  2  1     0.0000000000e+00
 3  2  2    -1.2051788787e-01
 3  2  3     9.7278354775e+00
 3  3  1     0.0000000000e+00
 3  3  2     9.9260590698e+00
 3  3  3     1.3403393860e-01

   24
0.0000000000e+00 0.0000000000e+00 0.0000000000e+00
0.0000000000e+00 0.0000000000e+00 0.0000000000e+00
     1      3      3
 1  1  1     0.0000000000e+00
 1  1  2    -1.0295987828e+01
 1  1  3     4.4227652694e-03
 1  2  1    -1.0295987828e+01
 1  2  2     0.0000000000e+00
 1  2  3     0.0000000000e+00
 1  3  1     4.4227652694e-03
 1  3  2     0.0000000000e+00
 1  3  3     0.0000000000e+00
 2  1  1    -9.8132221746e+00
 2  1  2     0.0000000000e+00
 2  1  3     0.0000000000e+00
 2  2  1     0.0000000000e+00
 2  2  2     1.5246170591e+02
 2  2  3     1.2440259875e-01
 2  3  1     0.0000000000e+00
 2  3  2     1.2440259875e-01
 2  3  3    -9.6782649043e+00
 3  1  1    -1.1099011112e-01
 3  1  2     0.0000000000e+00
 3  1  3     0.0000000000e+00
 3  2  1     0.0000000000e+00
 3  2  2     7.6304480605e-02
 3  2  3    -1.2052922050e+01
 3  3  1     0.0000000000e+00
 3  3  2    -1.2052922050e+01
 3  3  3     4.1923056166e-02

   25
0.0000000000e+00 0.0000000000e+00 0.0000000000e+00
2.5165745612e+00 0.0000000000e+00 0.0000000000e+00
     1      3      1
 1  1  1     9.7878998035e-01
 1  1  2     2.4353018378e-01
 1  1  3     3.5905983383e-03
 1  2  1    -7.9666931365e-01
 1  2  2    -9.5386062855e-02
 1  2  3    -1.7392389785e-02
 1  3  1    -3.2097044394e-03
 1  3  2     5.9116039114e-03
 1  3  3    -4.6073667907e-01
 2  1  1     5.4639986744e-01
 2  1  2     4.8605258257e-01
 2  1  3    -3.9771316959e-03
 2  2  1    -8.8240967428e-01
 2  2  2    -1.1714056892e+00
 2  2  3    -7.5232818957e-03
 2  3  1     4.8230829694e-03
 2  3  2    -4.8332944601e-03
 2  3  3     1.1287670444e-01
 3  1  1    -5.7516419301e-03
 3  1  2     2.7700884662e-03
 3  1  3    -2.4643729537e-02
 3  2  1     4.5311932474e-03
 3  2  2     3.2679587170e-03
 3  2  3    -1.1846136369e-01
 3  3  1     4.6531762528e-01
 3  3  2     7.7445652085e-01
 3  3  3    -1.3502818257e-03

   26
0.0000000000e+00 0.0000000000e+00 0.0000000000e+00
2.5165745612e+00 0.0000000000e+00 0.0000000000e+00
     1      3      3
 1  1  1     4.0154328203e-01
 1  1  2    -4.4720015770e-01
 1  1  3     2.6019702004e-03
 1  2  1     4.5421329198e-01
 1  2  2     8.1499304024e-02
 1  2  3     5.9583675099e-03
 1  3  1     3.4333777099e-03
 1  3  2     6.5752008457e-04
 1  3  3     1.0702588529e-01
 2  1  1     1.0548175737e+00
 2  1  2    -1.0029134869e+00
 2  1  3     8.2626835726e-03
 2  2  1    -1.6522954684e+00
 2  2  2     4.5437709032e-01
 2  2  3    -2.1251860541e-02
 2  3  1    -6.0013519677e-03
 2  3  2     6.0752439601e-04
 2  3  3    -3.9164983289e-02
 3  1  1    -2.4230377440e-03
 3  1  2     8.9667788749e-03
 3  1  3    -2.3274428763e-01
 3  2  1    -1.2418370121e-02
 3  2  2    -4.9281597506e-03
 3  2  3    -2.1455290913e-01
 3  3  1     3.9622857296e-01
 3  3  2    -4.0617843298e-01
 3  3  3     3.4721832945e-03

   27
0.0000000000e+00 0.0000000000e+00 0.0000000000e+00
-2.5165745612e+00 0.0000000000e+00 0.0000000000e+00
     1      3      1
 1  1  1    -9.7878998035e-01
 1  1  2     2.4353018378e-01
 1  1  3     3.5905983383e-03
 1  2  1    -7.9666931365e-01
 1  2  2     9.5386062855e-02
 1  2  3     1.7392389785e-02
 1  3  1    -3.2097044394e-03
 1  3  2    -5.9116039114e-03
 1  3  3     4.6073667907e-01
 2  1  1     5.4639986744e-01
 2  1  2    -4.8605258257e-01
 2  1  3     3.9771316959e-03
 2  2  1     8.8240967428e-01
 2  2  2    -1.1714056892e+00
 2  2  3    -7.5232818957e-03
 2  3  1    -4.8230829694e-03
 2  3  2    -4.8332944601e-03
 2  3  3     1.1287670444e-01
 3  1  1    -5.7516419301e-03
 3  1  2    -2.7700884662e-03
 3  1  3     2.4643729537e-02
 3  2  1    -4.5311932474e-03
 3  2  2     3.2679587170e-03
 3  2  3    -1.1846136369e-01
 3  3  1    -4.6531762528e-01
 3  3  2     7.7445652085e-01
 3  3  3    -1.3502818257e-03

   28
0.0000000000e+00 0.0000000000e+00 0.0000000000e+00
-2.5165745612e+00 0.0000000000e+00 0.0000000000e+00
     1      3      3
 1  1  1    -4.0154328203e-01
 1  1  2    -4.4720015770e-01
 1  1  3     2.6019702004e-03
 1  2  1     4.5421329198e-01
 1  2  2    -8.1499304024e-02
 1  2  3    -5.9583675099e-03
 1  3  1     3.4333777099e-03
 1  3  2    -6.5752008457e-04
 1  3  3    -1.0702588529e-01
 2  1  1     1.0548175737e+00
 2  1  2     1.0029134869e+00
 2  1  3    -8.2626835726e-03
 2  2  1     1.6522954684e+00
 2  2  2     4.5437709032e-01
 2  2  3    -2.1251860541e-02
 2  3  1     6.0013519677e-03
 2  3  2     6.0752439601e-04
 2  3  3    -3.9164983289e-02
 3  1  1    -2.4230377440e-03
 3  1  2    -8.9667788749e-03
 3  1  3     2.3274428763e-01
 3  2  1     1.2418370121e-02
 3  2  2    -4.9281597506e-03
 3  2  3    -2.1455290913e-01
 3  3  1    -3.9622857296e-01
 3  3  2    -4.0617843298e-01
 3  3  3     3.4721832945e-03

   29
0.0000000000e+00 0.0000000000e+00 0.0000000000e+00
-1.2582872806e+00 2.1794175006e+00 0.0000000000e+00
     1      3      1
 1  1  1     1.3831765395e+00
 1  1  2     1.2490474046e+00
 1  1  3    -1.9774910215e-02
 1  2  1     7.2848771772e-01
 1  2  2     7.6160412185e-01
 1  2  3    -6.5097372900e-03
 1  3  1     6.2773724843e-03
 1  3  2    -4.7202987663e-03
 1  3  3     1.6549212959e+00
 2  1  1    -8.0365194213e-01
 2  1  2     1.0450948162e+00
 2  1  3     1.0512420683e-02
 2  2  1    -4.2352239854e-01
 2  2  2     6.7347540320e-01
 2  2  3     6.0853853021e-02
 2  3  1     6.5188908358e-04
 2  3  2     8.6262699098e-03
 2  3  3    -3.1203543372e-02
 3  1  1     4.2429874963e-02
 3  1  2    -4.2423686757e-02
 3  1  3     9.7796866121e-01
 3  2  1    -2.5401528784e-02
 3  2  2    -1.3509321564e-03
 3  2  3     5.6463046981e-01
 3  3  1     8.0043758668e-01
 3  3  2     1.4488056552e+00
 3  3  3    -4.7423764724e-02

   30
0.0000000000e+00 0.0000000000e+00 0.0000000000e+00
-1.2582872806e+00 2.1794175006e+00 0.0000000000e+00
     1      3      3
 1  1  1    -8.7084871803e-01
 1  1  2     8.0097153031e-01
 1  1  3     6.6212739393e-03
 1  2  1    -1.1050679609e-01
 1  2  2     1.1513114929e-01
 1  2  3     2.3643885707e-03
 1  3  1    -4.8173560755e-03
 1  3  2    -4.2765418618e-03
 1  3  3    -4.5792881965e-01
 2  1  1    -3.4682814534e-01
 2  1  2    -9.6013485775e-01
 2  1  3    -9.1983921926e-04
 2  2  1     3.0607250258e-01
 2  2  2    -3.8071651662e-01
 2  2  3    -2.4118698681e-02
 2  3  1     5.7254058797e-04
 2  3  2    -4.9820673090e-03
 2  3  3    -1.2758137721e-01
 3  1  1    -1.1822341804e-03
 3  1  2     1.0358366344e-02
 3  1  3    -6.1798567104e-01
 3  2  1     2.9102964352e-03
 3  2  2    -7.4707205472e-03
 3  2  3     2.4405032817e-01
 3  3  1    -7.3438166209e-01
 3  3  2     2.6564106366e-01
 3  3  3     3.8415849866e-03

   31
0.0000000000e+00 0.0000000000e+00 0.0000000000e+00
1.2582872806e+00 2.1794175006e+00 0.0000000000e+00
     1      3      1
 1  1  1    -1.3831765395e+00
 1  1  2     1.2490474046e+00
 1  1  3    -1.9774910215e-02
 1  2  1     7.2848771772e-01
 1  2  2    -7.6160412185e-01
 1  2  3     6.5097372900e-03
 1  3  1     6.2773724843e-03
 1  3  2     4.7202987663e-03
 1  3  3    -1.6549212959e+00
 2  1  1    -8.0365194213e-01
 2  1  2    -1.0450948162e+00
 2  1  3    -1.0512420683e-02
 2  2  1     4.2352239854e-01
 2  2  2     6.7347540320e-01
 2  2  3     6.0853853021e-02
 2  3  1    -6.5188908358e-04
 2  3  2     8.6262699098e-03
 2  3  3    -3.1203543372e-02
 3  1  1     4.2429874963e-02
 3  1  2     4.2423686757e-02
 3  1  3    -9.7796866121e-01
 3  2  1     2.5401528784e-02
 3  2  2    -1.3509321564e-03
 3  2  3     5.6463046981e-01
 3  3  1    -8.0043758668e-01
 3  3  2     1.4488056552e+00
 3  3  3    -4.7423764724e-02

   32
0.0000000000e+00 0.0000000000e+00 0.0000000000e+00
1.2582872806e+00 2.1794175006e+00 0.0000000000e+00
     1      3      3
 1  1  1     8.7084871803e-01
 1  1  2     8.0097153031e-01
 1  1  3     6.6212739393e-03
 1  2  1    -1.1050679609e-01
 1  2  2    -1.1513114929e-01
 1  2  3    -2.3643885707e-03
 1  3  1    -4.8173560755e-03
 1  3  2     4.2765418618e-03
 1  3  3     4.5792881965e-01
 2  1  1    -3.4682814534e-01
 2  1  2     9.6013485775e-01
 2  1  3     9.1983921926e-04
 2  2  1    -3.0607250258e-01
 2  2  2    -3.8071651662e-01
 2  2  3    -2.4118698681e-02
 2  3  1    -5.7254058797e-04
 2  3  2    -4.9820673090e-03
 2  3  3    -1.2758137721e-01
 3  1  1    -1.1822341804e-03
 3  1  2    -1.0358366344e-02
 3  1  3     6.1798567104e-01
 3  2  1    -2.9102964352e-03
 3  2  2    -7.4707205472e-03