   0.33873E+01   0.20990E-02   0.20990E-02   0.27780E-02   0.27780E-02
   0.67746E+01   0.25361E-02   0.25361E-02   0.34700E-02   0.34700E-02
   0.10162E+02   0.24682E-02   0.24682E-02   0.35034E-02   0.35034E-02
   0.13549E+02   0.92757E-02   0.92757E-02   0.12888E-01   0.12888E-01
   0.16937E+02   0.57952E-02   0.57952E-02   0.86686E-02   0.86686E-02
   0.20324E+02   0.54192E-02   0.54192E-02   0.85674E-02   0.85674E-02
   0.23711E+02   0.51992E-02   0.51992E-02   0.86915E-02   0.86915E-02
   0.27098E+02   0.49810E-02   0.49810E-02   0.87891E-02   0.87891E-02
   0.30486E+02   0.51393E-02   0.51393E-02   0.96979E-02   0.96979E-02
   0.33873E+02   0.50309E-02   0.50309E-02   0.10120E-01   0.10120E-01
   0.37260E+02   0.49508E-02   0.49508E-02   0.10687E-01   0.10687E-01
   0.40648E+02   0.52899E-02   0.52899E-02   0.12485E-01   0.12485E-01
   0.44035E+02   0.52770E-02   0.52770E-02   0.13827E-01   0.13827E-01
   0.47422E+02   0.51802E-02   0.51802E-02   0.15501E-01   0.15501E-01
   0.50810E+02   0.52895E-02   0.52895E-02   0.18640E-01   0.18640E-01
   0.54197E+02   0.56155E-02   0.56155E-02   0.24979E-01   0.24979E-01
   0.57584E+02   0.61289E-02   0.61289E-02   0.42492E-01   0.42492E-01
   0.60971E+02   0.22894E-02   0.22894E-02   0.24298E-01   0.24298E-01
   0.64359E+02   0.26158E-02   0.26158E-02   0.34968E-02   0.34968E-02
   0.67746E+02   0.29167E-02   0.29167E-02   0.39066E-02   0.39066E-02
   0.71133E+02   0.37768E-02   0.37768E-02   0.50704E-02   0.50704E-02
   0.74521E+02   0.70943E-02   0.70943E-02   0.95685E-02   0.95685E-02
   0.77908E+02   0.41007E-02   0.41007E-02   0.55082E-02   0.55082E-02
   0.81295E+02   0.36277E-02   0.36277E-02   0.48662E-02   0.48662E-02
   0.84683E+02   0.34049E-02   0.34049E-02   0.45650E-02   0.45650E-02
   0.88070E+02   0.31870E-02   0.31870E-02   0.42876E-02   0.42876E-02
   0.91457E+02   0.29799E-02   0.29799E-02   0.40359E-02   0.40359E-02
   0.94845E+02   0.35997E-02   0.35997E-02   0.59740E-02   0.59740E-02
   0.98232E+02   0.36970E-02   0.36970E-02   0.62739E-02   0.62739E-02
   0.10162E+03   0.36931E-02   0.36931E-02   0.61629E-02   0.61629E-02
   0.10501E+03   0.39036E-02   0.39036E-02   0.67657E-02   0.67657E-02
   0.10839E+03   0.35776E-02   0.35776E-02   0.62427E-02   0.62427E-02
   0.11178E+03   0.34728E-02   0.34728E-02   0.60805E-02   0.60805E-02
   0.11517E+03   0.24699E-01   0.24699E-01   0.73230E-02   0.73230E-02
   0.11856E+03   0.41705E-01   0.41705E-01   0.10694E-01   0.10694E-01
   0.12194E+03   0.35794E-01   0.35794E-01   0.12289E-01   0.12289E-01
   0.12533E+03   0.25921E-01   0.25921E-01   0.12824E-01   0.12824E-01
   0.12872E+03   0.22087E-01   0.22087E-01   0.13516E-01   0.13516E-01
   0.13210E+03   0.20050E-01   0.20050E-01   0.14140E-01   0.14140E-01
   0.13549E+03   0.18022E-01   0.18022E-01   0.14206E-01   0.14206E-01
   0.13888E+03   0.17222E-01   0.17222E-01   0.15342E-01   0.15342E-01
   0.14227E+03   0.17166E-01   0.17166E-01   0.16979E-01   0.16979E-01
   0.14565E+03   0.17172E-01   0.17172E-01   0.18662E-01   0.18662E-01
   0.14904E+03   0.15729E-01   0.15729E-01   0.19698E-01   0.19698E-01
   0.15243E+03   0.14478E-01   0.14478E-01   0.20896E-01   0.20896E-01
   0.15582E+03   0.98495E-02   0.98495E-02   0.15464E-01   0.15464E-01
   0.15920E+03   0.58409E-02   0.58409E-02   0.12381E-01   0.12381E-01
   0.16259E+03   0.53339E-02   0.53339E-02   0.11156E-01   0.11156E-01
   0.16598E+03   0.21088E-02   0.21088E-02   0.50975E-02   0.50975E-02
   0.16937E+03   0.22012E-02   0.22012E-02   0.55102E-02   0.55102E-02
   0.17275E+03   0.22820E-02   0.22820E-02   0.59236E-02   0.59236E-02
   0.17614E+03   0.23844E-02   0.23844E-02   0.64638E-02   0.64638E-02
   0.17953E+03   0.24317E-02   0.24317E-02   0.69783E-02   0.69783E-02
   0.18291E+03   0.23844E-02   0.23844E-02   0.72996E-02   0.72996E-02
   0.18630E+03   0.25490E-02   0.25490E-02   0.93680E-02   0.93680E-02
   0.18969E+03   0.27617E-02   0.27617E-02   0.14019E-01   0.14019E-01
   0.19308E+03   0.49051E-02   0.49051E-02   0.40908E-01   0.40908E-01
   0.19646E+03   0.20336E-02   0.20336E-02   0.11431E-01   0.11431E-01
   0.19985E+03   0.17267E-02   0.17267E-02   0.10846E-01   0.10846E-01
   0.20324E+03   0.15091E-02   0.15091E-02   0.12303E-01   0.12303E-01
   0.20663E+03   0.63402E-02   0.63402E-02   0.38115E-01   0.38115E-01
   0.21001E+03   0.24010E-02   0.24010E-02   0.19657E-01   0.19657E-01
   0.21340E+03   0.50983E-05   0.50983E-05   0.54197E-04   0.54197E-04
   0.21679E+03   0.00000E+00   0.00000E+00   0.00000E+00   0.00000E+00
   0.22017E+03   0.00000E+00   0.00000E+00   0.00000E+00   0.00000E+00
   0.22356E+03   0.00000E+00   0.00000E+00   0.00000E+00   0.00000E+00
   0.22695E+03   0.00000E+00   0.00000E+00   0.00000E+00   0.00000E+00
   0.23034E+03   0.00000E+00   0.00000E+00   0.00000E+00   0.00000E+00
   0.23372E+03   0.00000E+00   0.00000E+00   0.00000E+00   0.00000E+00
   0.23711E+03   0.12748E-01   0.12748E-01   0.38652E-02   0.38652E-02
   0.24050E+03   0.14624E-01   0.14624E-01   0.59228E-02   0.59228E-02
   0.24389E+03   0.17149E-01   0.17149E-01   0.75055E-02   0.75055E-02
   0.24727E+03   0.11559E-01   0.11559E-01   0.61461E-02   0.61461E-02
   0.25066E+03   0.27630E-01   0.27630E-01   0.20822E-01   0.20822E-01
   0.25405E+03   0.29474E-01   0.29474E-01   0.21595E-01   0.21595E-01
   0.25744E+03   0.16850E-01   0.16850E-01   0.11706E-01   0.11706E-01
   0.26082E+03   0.12910E-01   0.12910E-01   0.89724E-02   0.89724E-02
   0.26421E+03   0.10982E-01   0.10982E-01   0.76415E-02   0.76415E-02
   0.26760E+03   0.74539E-01   0.74539E-01   0.24362E-01   0.24362E-01
   0.27098E+03   0.35287E-01   0.35287E-01   0.14009E-01   0.14009E-01
   0.27437E+03   0.19175E-01   0.19175E-01   0.51701E-02   0.51701E-02
   0.27776E+03   0.19870E-01   0.19870E-01   0.54814E-02   0.54814E-02
   0.28115E+03   0.17793E-01   0.17793E-01   0.40102E-02   0.40102E-02
   0.28453E+03   0.12044E-01   0.12044E-01   0.98947E-03   0.98947E-03
   0.28792E+03   0.15720E-01   0.15720E-01   0.15565E-02   0.15565E-02
   0.29131E+03   0.10798E-01   0.10798E-01   0.18717E-02   0.18717E-02
   0.29470E+03   0.12052E-01   0.12052E-01   0.27631E-02   0.27631E-02
   0.29808E+03   0.10745E-01   0.10745E-01   0.29730E-02   0.29730E-02
   0.30147E+03   0.12518E-01   0.12518E-01   0.41097E-02   0.41097E-02
   0.30486E+03   0.13473E-01   0.13473E-01   0.50254E-02   0.50254E-02
   0.30824E+03   0.10100E-05   0.10100E-05   0.40441E-06   0.40441E-06
   0.31163E+03   0.00000E+00   0.00000E+00   0.00000E+00   0.00000E+00
   0.31502E+03   0.00000E+00   0.00000E+00   0.00000E+00   0.00000E+00
   0.31841E+03   0.00000E+00   0.00000E+00   0.00000E+00   0.00000E+00
   0.32179E+03   0.00000E+00   0.00000E+00   0.00000E+00   0.00000E+00
   0.32518E+03   0.00000E+00   0.00000E+00   0.00000E+00   0.00000E+00
   0.32857E+03   0.00000E+00   0.00000E+00   0.00000E+00   0.00000E+00
   0.33196E+03   0.00000E+00   0.00000E+00   0.00000E+00   0.00000E+00
   0.33534E+03   0.00000E+00   0.00000E+00   0.00000E+00   0.00000E+00
   0.33873E+03   0.00000E+00   0.00000E+00   0.00000E+00   0.00000E+00
