  904

    1
0.0000000000e+00 0.0000000000e+00 0.0000000000e+00
0.0000000000e+00 0.0000000000e+00 0.0000000000e+00
     1      1      1
 1  1  1     0.0000000000e+00
 1  1  2    -1.3770204174e+02
 1  1  3     5.9881241633e-02
 1  2  1    -1.3770204174e+02
 1  2  2     0.0000000000e+00
 1  2  3     0.0000000000e+00
 1  3  1     5.9881241633e-02
 1  3  2     0.0000000000e+00
 1  3  3     0.0000000000e+00
 2  1  1    -1.3770204174e+02
 2  1  2     0.0000000000e+00
 2  1  3     0.0000000000e+00
 2  2  1     0.0000000000e+00
 2  2  2     1.3770204174e+02
 2  2  3     5.9881241633e-02
 2  3  1     0.0000000000e+00
 2  3  2     5.9881241633e-02
 2  3  3     0.0000000000e+00
 3  1  1     5.9881241633e-02
 3  1  2     0.0000000000e+00
 3  1  3     0.0000000000e+00
 3  2  1     0.0000000000e+00
 3  2  2     5.9881241633e-02
 3  2  3     0.0000000000e+00
 3  3  1     0.0000000000e+00
 3  3  2     0.0000000000e+00
 3  3  3    -1.3722739070e-01

    2
0.0000000000e+00 0.0000000000e+00 0.0000000000e+00
0.0000000000e+00 0.0000000000e+00 0.0000000000e+00
     1      1      2
 1  1  1     0.0000000000e+00
 1  1  2    -4.9493665578e-02
 1  1  3     1.4718985982e-01
 1  2  1    -4.9493665578e-02
 1  2  2     0.0000000000e+00
 1  2  3     0.0000000000e+00
 1  3  1     1.4727426016e-01
 1  3  2     0.0000000000e+00
 1  3  3     0.0000000000e+00
 2  1  1    -4.9493665578e-02
 2  1  2     0.0000000000e+00
 2  1  3     0.0000000000e+00
 2  2  1     0.0000000000e+00
 2  2  2     4.9493665578e-02
 2  2  3     1.4718985982e-01
 2  3  1     0.0000000000e+00
 2  3  2     1.4727426016e-01
 2  3  3     0.0000000000e+00
 3  1  1     1.4727426016e-01
 3  1  2     0.0000000000e+00
 3  1  3     0.0000000000e+00
 3  2  1     0.0000000000e+00
 3  2  2     1.4727426016e-01
 3  2  3     0.0000000000e+00
 3  3  1     0.0000000000e+00
 3  3  2     0.0000000000e+00
 3  3  3    -1.3737608373e-01

    3
0.0000000000e+00 0.0000000000e+00 0.0000000000e+00
0.0000000000e+00 0.0000000000e+00 0.0000000000e+00
     1      1      3
 1  1  1     0.0000000000e+00
 1  1  2     8.0908744080e+00
 1  1  3    -8.7127519504e-03
 1  2  1     8.6401129318e+00
 1  2  2     0.0000000000e+00
 1  2  3     0.0000000000e+00
 1  3  1    -4.0665570764e-03
 1  3  2     0.0000000000e+00
 1  3  3     0.0000000000e+00
 2  1  1     8.6401129318e+00
 2  1  2     0.0000000000e+00
 2  1  3     0.0000000000e+00
 2  2  1     0.0000000000e+00
 2  2  2    -1.5896982083e+02
 2  2  3    -1.1368654395e-01
 2  3  1     0.0000000000e+00
 2  3  2    -1.3597609537e-01
 2  3  3     1.0776038454e+01
 3  1  1    -4.0665570764e-03
 3  1  2     0.0000000000e+00
 3  1  3     0.0000000000e+00
 3  2  1     0.0000000000e+00
 3  2  2    -1.3597609537e-01
 3  2  3     1.0776038454e+01
 3  3  1     0.0000000000e+00
 3  3  2     1.0483139871e+01
 3  3  3     1.2895642469e-01

    4
0.0000000000e+00 0.0000000000e+00 0.0000000000e+00
2.5040542898e+00 0.0000000000e+00 0.0000000000e+00
     1      1      1
 1  1  1    -6.2863474748e+00
 1  1  2     3.7228714857e-01
 1  1  3    -3.0034863357e-02
 1  2  1     1.5260261214e+00
 1  2  2     1.4857779753e+00
 1  2  3     3.8629254754e-02
 1  3  1     5.5897746258e-03
 1  3  2    -6.4474138300e-04
 1  3  3     1.7465520806e+00
 2  1  1     1.5260261214e+00
 2  1  2     1.4857779753e+00
 2  1  3     3.8629254754e-02
 2  2  1     1.7313563289e+00
 2  2  2     1.7639749044e+00
 2  2  3     5.3135734727e-03
 2  3  1    -6.1599246017e-03
 2  3  2    -3.4201454757e-03
 2  3  3     6.3585590928e-01
 3  1  1     5.5897746258e-03
 3  1  2    -6.4474138300e-04
 3  1  3     1.7465520806e+00
 3  2  1    -6.1599246017e-03
 3  2  2    -3.4201454757e-03
 3  2  3     6.3585590928e-01
 3  3  1     4.9025754448e-02
 3  3  2     3.4491741530e-01
 3  3  3     7.1654643137e-03

    5
0.0000000000e+00 0.0000000000e+00 0.0000000000e+00
2.5040542898e+00 0.0000000000e+00 0.0000000000e+00
     1      1      3
 1  1  1    -6.8983682366e-01
 1  1  2     5.5980638824e-01
 1  1  3    -4.5393151104e-03
 1  2  1    -5.7339156377e-01
 1  2  2    -8.8419775052e-01
 1  2  3    -1.2919160468e-02
 1  3  1     3.9902961042e-03
 1  3  2     2.0040608628e-03
 1  3  3    -1.4935857277e-01
 2  1  1    -5.7339156377e-01
 2  1  2    -8.8419775052e-01
 2  1  3    -1.2919160468e-02
 2  2  1     1.0785586774e+00
 2  2  2    -3.3537772135e-01
 2  2  3     1.0378446438e-02
 2  3  1     2.0040608628e-03
 2  3  2     1.6762059470e-03
 2  3  3    -8.6232212192e-02
 3  1  1     3.9902961042e-03
 3  1  2     2.0040608628e-03
 3  1  3    -1.4935857277e-01
 3  2  1     2.0040608628e-03
 3  2  2     1.6762059470e-03
 3  2  3    -8.6232212192e-02
 3  3  1    -4.2238030814e-01
 3  3  2    -2.4386138461e-01
 3  3  3    -3.1503233581e-02

    6
0.0000000000e+00 0.0000000000e+00 0.0000000000e+00
-2.5040542898e+00 0.0000000000e+00 0.0000000000e+00
     1      1      1
 1  1  1     6.2863474748e+00
 1  1  2     3.7228714857e-01
 1  1  3    -3.0034863357e-02
 1  2  1     1.5260261214e+00
 1  2  2    -1.4857779753e+00
 1  2  3    -3.8629254754e-02
 1  3  1     5.5897746258e-03
 1  3  2     6.4474138300e-04
 1  3  3    -1.7465520806e+00
 2  1  1     1.5260261214e+00
 2  1  2    -1.4857779753e+00
 2  1  3    -3.8629254754e-02
 2  2  1    -1.7313563289e+00
 2  2  2     1.7639749044e+00
 2  2  3     5.3135734727e-03
 2  3  1     6.1599246017e-03
 2  3  2    -3.4201454757e-03
 2  3  3     6.3585590928e-01
 3  1  1     5.5897746258e-03
 3  1  2     6.4474138300e-04
 3  1  3    -1.7465520806e+00
 3  2  1     6.1599246017e-03
 3  2  2    -3.4201454757e-03
 3  2  3     6.3585590928e-01
 3  3  1    -4.9025754448e-02
 3  3  2     3.4491741530e-01
 3  3  3     7.1654643137e-03

    7
0.0000000000e+00 0.0000000000e+00 0.0000000000e+00
-2.5040542898e+00 0.0000000000e+00 0.0000000000e+00
     1      1      3
 1  1  1     6.8983682366e-01
 1  1  2     5.5980638824e-01
 1  1  3    -4.5393151104e-03
 1  2  1    -5.7339156377e-01
 1  2  2     8.8419775052e-01
 1  2  3     1.2919160468e-02
 1  3  1     3.9902961042e-03
 1  3  2    -2.0040608628e-03
 1  3  3     1.4935857277e-01
 2  1  1    -5.7339156377e-01
 2  1  2     8.8419775052e-01
 2  1  3     1.2919160468e-02
 2  2  1    -1.0785586774e+00
 2  2  2    -3.3537772135e-01
 2  2  3     1.0378446438e-02
 2  3  1    -2.0040608628e-03
 2  3  2     1.6762059470e-03
 2  3  3    -8.6232212192e-02
 3  1  1     3.9902961042e-03
 3  1  2    -2.0040608628e-03
 3  1  3     1.4935857277e-01
 3  2  1    -2.0040608628e-03
 3  2  2     1.6762059470e-03
 3  2  3    -8.6232212192e-02
 3  3  1     4.2238030814e-01
 3  3  2    -2.4386138461e-01
 3  3  3    -3.1503233581e-02

    8
0.0000000000e+00 0.0000000000e+00 0.0000000000e+00
-1.2520271449e+00 2.1685746274e+00 0.0000000000e+00
     1      1      1
 1  1  1    -2.8649252056e+00
 1  1  2    -4.4335285678e-01
 1  1  3     2.9930380211e-02
 1  2  1    -1.2328994361e+00
 1  2  2     2.4159854885e+00
 1  2  3    -4.0083052376e-03
 1  3  1    -4.1141722538e-03
 1  3  2     5.5734825852e-04
 1  3  3    -1.4239434109e+00
 2  1  1    -1.2328994361e+00
 2  1  2     2.4159854885e+00
 2  1  3    -4.0083052376e-03
 2  2  1     3.2923635715e+00
 2  2  2    -4.5695162160e+00
 2  2  3    -5.4651670095e-02
 2  3  1    -4.9578349601e-03
 2  3  2     6.2838014039e-03
 2  3  3     1.1946305162e+00
 3  1  1    -4.1141722538e-03
 3  1  2     5.5734825852e-04
 3  1  3    -1.4239434109e+00
 3  2  1    -4.9578349601e-03
 3  2  2     6.2838014039e-03
 3  2  3     1.1946305162e+00
 3  3  1    -3.2322012108e-01
 3  3  2    -1.3000115886e-01
 3  3  3     7.1654643137e-03

    9
0.0000000000e+00 0.0000000000e+00 0.0000000000e+00
-1.2520271449e+00 2.1685746274e+00 0.0000000000e+00
     1      1      3
 1  1  1     5.3833072390e-01
 1  1  2    -7.1659810153e-01
 1  1  3    -8.2889318763e-03
 1  2  1    -2.2545590534e-01
 1  2  2     1.2645797965e-01
 1  2  3     2.0821863064e-03
 1  3  1     1.9854620930e-03
 1  3  2     1.4404217745e-03
 1  3  3     7.4503070403e-02
 2  1  1    -2.2545590534e-01
 2  1  2     1.2645797965e-01
 2  1  3     2.0821863064e-03
 2  2  1     2.4100336892e-01
 2  2  2     7.0796227640e-01
 2  2  3     2.2804041481e-02
 2  3  1    -1.3430889327e-03
 2  3  2    -5.9258599618e-03
 2  3  3    -1.8502378493e-01
 3  1  1     1.9854620930e-03
 3  1  2     1.4404217745e-03
 3  1  3     7.4503070403e-02
 3  2  1    -1.3430889327e-03
 3  2  2    -5.9258599618e-03
 3  2  3    -1.8502378493e-01
 3  3  1     4.0593684409e-01
 3  3  2    -4.2489668474e-01
 3  3  3    -1.0185359614e-02

   10
0.0000000000e+00 0.0000000000e+00 0.0000000000e+00
1.2520271449e+00 2.1685746274e+00 0.0000000000e+00
     1      1      1
 1  1  1     2.8649252056e+00
 1  1  2    -4.4335285678e-01
 1  1  3     2.9930380211e-02
 1  2  1    -1.2328994361e+00
 1  2  2    -2.4159854885e+00
 1  2  3     4.0083052376e-03
 1  3  1    -4.1141722538e-03
 1  3  2    -5.5734825852e-04
 1  3  3     1.4239434109e+00
 2  1  1    -1.2328994361e+00
 2  1  2    -2.4159854885e+00
 2  1  3     4.0083052376e-03
 2  2  1    -3.2923635715e+00
 2  2  2    -4.5695162160e+00
 2  2  3    -5.4651670095e-02
 2  3  1     4.9578349601e-03
 2  3  2     6.2838014039e-03
 2  3  3     1.1946305162e+00
 3  1  1    -4.1141722538e-03
 3  1  2    -5.5734825852e-04
 3  1  3     1.4239434109e+00
 3  2  1     4.9578349601e-03
 3  2  2     6.2838014039e-03
 3  2  3     1.1946305162e+00
 3  3  1     3.2322012108e-01
 3  3  2    -1.3000115886e-01
 3  3  3     7.1654643137e-03

   11
0.0000000000e+00 0.0000000000e+00 0.0000000000e+00
1.2520271449e+00 2.1685746274e+00 0.0000000000e+00
     1      1      3
 1  1  1    -5.3833072390e-01
 1  1  2    -7.1659810153e-01
 1  1  3    -8.2889318763e-03
 1  2  1    -2.2545590534e-01
 1  2  2    -1.2645797965e-01
 1  2  3    -2.0821863064e-03
 1  3  1     1.9854620930e-03
 1  3  2    -1.4404217745e-03
 1  3  3    -7.4503070403e-02
 2  1  1    -2.2545590534e-01
 2  1  2    -1.2645797965e-01
 2  1  3    -2.0821863064e-03
 2  2  1    -2.4100336892e-01
 2  2  2     7.0796227640e-01
 2  2  3     2.2804041481e-02
 2  3  1     1.3430889327e-03
 2  3  2    -5.9258599618e-03
 2  3  3    -1.8502378493e-01
 3  1  1     1.9854620930e-03
 3  1  2    -1.4404217745e-03
 3  1  3    -7.4503070403e-02
 3  2  1     1.3430889327e-03
 3  2  2    -5.9258599618e-03
 3  2  3    -1.8502378493e-01
 3  3  1    -4.0593684409e-01
 3  3  2    -4.2489668474e-01
 3  3  3    -1.0185359614e-02

   12
0.0000000000e+00 0.0000000000e+00 0.0000000000e+00
2.5040542898e+00 -4.3371492549e+00 0.0000000000e+00
     1      1      3
 1  1  1     4.5957276500e-01
 1  1  2    -1.2667263087e-01
 1  1  3     1.6834024378e-02
 1  2  1    -4.7144294595e-01
 1  2  2     2.9068436161e-01
 1  2  3    -1.2422559250e-02
 1  3  1    -3.9058830913e-03
 1  3  2     2.0582807954e-03
 1  3  3    -1.2298376285e-01
 2  1  1    -4.7144294595e-01
 2  1  2     2.9068436161e-01
 2  1  3    -1.2422559250e-02
 2  2  1    -7.7384562527e-02
 2  2  2     8.0591366585e-01
 2  2  3    -2.3189147738e-03
 2  3  1     4.8417915025e-03
 2  3  2    -3.4514777518e-05
 2  3  3     1.5703344409e-01
 3  1  1    -3.9058830913e-03
 3  1  2     2.0582807954e-03
 3  1  3    -1.2298376285e-01
 3  2  1     4.8417915025e-03
 3  2  2    -3.4514777518e-05
 3  2  3     1.5703344409e-01
 3  3  1    -1.6500290093e-01
 3  3  2     5.6399996168e-01
 3  3  3    -1.0185359614e-02

   13
0.0000000000e+00 0.0000000000e+00 0.0000000000e+00
-2.5040542898e+00 -4.3371492549e+00 0.0000000000e+00
     1      1      3
 1  1  1    -4.5957276500e-01
 1  1  2    -1.2667263087e-01
 1  1  3     1.6834024378e-02
 1  2  1    -4.7144294595e-01
 1  2  2    -2.9068436161e-01
 1  2  3     1.2422559250e-02
 1  3  1    -3.9058830913e-03
 1  3  2    -2.0582807954e-03
 1  3  3     1.2298376285e-01
 2  1  1    -4.7144294595e-01
 2  1  2    -2.9068436161e-01
 2  1  3     1.2422559250e-02
 2  2  1     7.7384562527e-02
 2  2  2     8.0591366585e-01
 2  2  3    -2.3189147738e-03
 2  3  1    -4.8417915025e-03
 2  3  2    -3.4514777518e-05
 2  3  3     1.5703344409e-01
 3  1  1    -3.9058830913e-03
 3  1  2    -2.0582807954e-03
 3  1  3     1.2298376285e-01
 3  2  1    -4.8417915025e-03
 3  2  2    -3.4514777518e-05
 3  2  3     1.5703344409e-01
 3  3  1     1.6500290093e-01
 3  3  2     5.6399996168e-01
 3  3  3    -1.0185359614e-02

   14
0.0000000000e+00 0.0000000000e+00 0.0000000000e+00
0.0000000000e+00 -4.3371492549e+00 0.0000000000e+00
     1      1      3
 1  1  1     0.0000000000e+00
 1  1  2    -1.3083120399e+00
 1  1  3     1.7837327212e-02
 1  2  1     9.5808386408e-01
 1  2  2     0.0000000000e+00
 1  2  3     0.0000000000e+00
 1  3  1     5.1916086840e-04
 1  3  2     0.0000000000e+00
 1  3  3     0.0000000000e+00
 2  1  1     9.5808386408e-01
 2  1  2     0.0000000000e+00
 2  1  3     0.0000000000e+00
 2  2  1     0.0000000000e+00
 2  2  2     8.5945470616e-01
 2  2  3    -1.1998195884e-02
 2  3  1     0.0000000000e+00
 2  3  2     5.1473411827e-03
 2  3  3     1.7246442438e-01
 3  1  1     5.1916086840e-04
 3  1  2     0.0000000000e+00
 3  1  3     0.0000000000e+00
 3  2  1     0.0000000000e+00
 3  2  2     5.1473411827e-03
 3  2  3     1.7246442438e-01
 3  3  1     0.0000000000e+00
 3  3  2     4.8772276921e-01
 3  3  3    -3.1503233581e-02

   15
0.0000000000e+00 0.0000000000e+00 0.0000000000e+00
1.2520271449e+00 -2.1685746274e+00 0.0000000000e+00
     1      1      1
 1  1  1    -9.0932786472e-01
 1  1  2     1.3163390735e+00
 1  1  3    -3.6977451681e-02
 1  2  1     9.5214667995e-01
 1  2  2    -4.3401813519e+00
 1  2  3     3.4620949516e-02
 1  3  1     1.7788413531e-03
 1  3  2    -8.3601679525e-03
 1  3  3     3.2260866969e-01
 2  1  1     9.5214667995e-01
 2  1  2    -4.3401813519e+00
 2  1  3     3.4620949516e-02
 2  2  1    -3.2182249152e+00
 2  2  2     1.5602679463e+00
 2  2  3     1.2256161796e-02
 2  3  1    -2.8449847338e-03
 2  3  2     3.9078779690e-04
 2  3  3    -1.8304864254e+00
 3  1  1     1.7788413531e-03
 3  1  2    -8.3601679525e-03
 3  1  3     3.2260866969e-01
 3  2  1    -2.8449847338e-03
 3  2  2     3.9078779690e-04
 3  2  3    -1.8304864254e+00
 3  3  1    -2.7419436663e-01
 3  3  2    -2.1491625644e-01
 3  3  3     7.1654643137e-03

   16
0.0000000000e+00 0.0000000000e+00 0.0000000000e+00
1.2520271449e+00 -2.1685746274e+00 0.0000000000e+00
     1      1      3
 1  1  1    -9.7760923113e+01
 1  1  2     6.5082408207e+01
 1  1  3    -8.7443095951e-02
 1  2  1     6.4807788945e+01
 1  2  2    -3.2428422866e+01
 1  2  3     4.5454985302e-02
 1  3  1    -1.0299871080e-01
 1  3  2     5.7118505581e-02
 1  3  3     9.3323230529e+00
 2  1  1     6.4807788945e+01
 2  1  2    -3.2428422866e+01
 2  1  3     4.5454985302e-02
 2  2  1    -3.2904077381e+01
 2  2  2     1.0357065001e+01
 2  2  3    -3.4956199951e-02
 2  3  1     5.7118505581e-02
 2  3  2    -3.7043941649e-02
 2  3  3    -5.3880192268e+00
 3  1  1    -1.0299871080e-01
 3  1  2     5.7118505581e-02
 3  1  3     9.3323230529e+00
 3  2  1     5.7118505581e-02
 3  2  2    -3.7043941649e-02
 3  2  3    -5.3880192268e+00
 3  3  1     9.0786654401e+00
 3  3  2    -5.2415699357e+00
 3  3  3     1.2895642469e-01

   17
0.0000000000e+00 0.0000000000e+00 0.0000000000e+00
3.7560814347e+00 -2.1685746274e+00 0.0000000000e+00
     1      1      3
 1  1  1    -4.5449412141e-02
 1  1  2    -5.6333340907e-01
 1  1  3     1.3227571905e-02
 1  2  1    -7.0970529017e-01
 1  2  2     1.3091783519e-01
 1  2  3    -1.4504745556e-02
 1  3  1    -3.9901758049e-03
 1  3  2     4.7931250816e-03
 1  3  3    -1.9748683325e-01
 2  1  1    -7.0970529017e-01
 2  1  2     1.3091783519e-01
 2  1  3    -1.4504745556e-02
 2  2  1    -3.5169647821e-01
 2  2  2    -1.0727180079e-01
 2  2  3     1.2875376997e-03
 2  3  1     2.0096143745e-03
 2  3  2     4.9777936075e-05
 2  3  3     2.7990340835e-02
 3  1  1    -3.9901758049e-03
 3  1  2     4.7931250816e-03
 3  1  3    -1.9748683325e-01
 3  2  1     2.0096143745e-03
 3  2  2     4.9777936075e-05
 3  2  3     2.7990340835e-02
 3  3  1    -5.7093974501e-01
 3  3  2    -1.3910327694e-01
 3  3  3    -1.0185359614e-02

   18
0.0000000000e+00 0.0000000000e+00 0.0000000000e+00
-3.7560814347e+00 -2.1685746274e+00 0.0000000000e+00
     1      1      3
 1  1  1     4.5449412141e-02
 1  1  2    -5.6333340907e-01
 1  1  3     1.3227571905e-02
 1  2  1    -7.0970529017e-01
 1  2  2    -1.3091783519e-01
 1  2  3     1.4504745556e-02
 1  3  1    -3.9901758049e-03
 1  3  2    -4.7931250816e-03
 1  3  3     1.9748683325e-01
 2  1  1    -7.0970529017e-01
 2  1  2    -1.3091783519e-01
 2  1  3     1.4504745556e-02
 2  2  1     3.5169647821e-01
 2  2  2    -1.0727180079e-01
 2  2  3     1.2875376997e-03
 2  3  1    -2.0096143745e-03
 2  3  2     4.9777936075e-05
 2  3  3     2.7990340835e-02
 3  1  1    -3.9901758049e-03
 3  1  2    -4.7931250816e-03
 3  1  3     1.9748683325e-01
 3  2  1    -2.0096143745e-03
 3  2  2     4.9777936075e-05
 3  2  3     2.7990340835e-02
 3  3  1     5.7093974501e-01
 3  3  2    -1.3910327694e-01
 3  3  3    -1.0185359614e-02

   19
0.0000000000e+00 0.0000000000e+00 0.0000000000e+00
-1.2520271449e+00 -2.1685746274e+00 0.0000000000e+00
     1      1      1
 1  1  1     9.0932786472e-01
 1  1  2     1.3163390735e+00
 1  1  3    -3.6977451681e-02
 1  2  1     9.5214667995e-01
 1  2  2     4.3401813519e+00
 1  2  3    -3.4620949516e-02
 1  3  1     1.7788413531e-03
 1  3  2     8.3601679525e-03
 1  3  3    -3.2260866969e-01
 2  1  1     9.5214667995e-01
 2  1  2     4.3401813519e+00
 2  1  3    -3.4620949516e-02
 2  2  1     3.2182249152e+00
 2  2  2     1.5602679463e+00
 2  2  3     1.2256161796e-02
 2  3  1     2.8449847338e-03
 2  3  2     3.9078779690e-04
 2  3  3    -1.8304864254e+00
 3  1  1     1.7788413531e-03
 3  1  2     8.3601679525e-03
 3  1  3    -3.2260866969e-01
 3  2  1     2.8449847338e-03
 3  2  2     3.9078779690e-04
 3  2  3    -1.8304864254e+00
 3  3  1     2.7419436663e-01
 3  3  2    -2.1491625644e-01
 3  3  3     7.1654643137e-03

   20
0.0000000000e+00 0.0000000000e+00 0.0000000000e+00
-1.2520271449e+00 -2.1685746274e+00 0.0000000000e+00
     1      1      3
 1  1  1     9.7760923113e+01
 1  1  2     6.5082408207e+01
 1  1  3    -8.7443095951e-02
 1  2  1     6.4807788945e+01
 1  2  2     3.2428422866e+01
 1  2  3    -4.5454985302e-02
 1  3  1    -1.0299871080e-01
 1  3  2    -5.7118505581e-02
 1  3  3    -9.3323230529e+00
 2  1  1     6.4807788945e+01
 2  1  2     3.2428422866e+01
 2  1  3    -4.5454985302e-02
 2  2  1     3.2904077381e+01
 2  2  2     1.0357065001e+01
 2  2  3    -3.4956199951e-02
 2  3  1    -5.7118505581e-02
 2  3  2    -3.7043941649e-02
 2  3  3    -5.3880192268e+00
 3  1  1    -1.0299871080e-01
 3  1  2    -5.7118505581e-02
 3  1  3    -9.3323230529e+00
 3  2  1    -5.7118505581e-02
 3  2  2    -3.7043941649e-02
 3  2  3    -5.3880192268e+00
 3  3  1    -9.0786654401e+00
 3  3  2    -5.2415699357e+00
 3  3  3     1.2895642469e-01

   21
0.0000000000e+00 0.0000000000e+00 0.0000000000e+00
0.0000000000e+00 0.0000000000e+00 0.0000000000e+00
     1      2      1
 1  1  1     0.0000000000e+00
 1  1  2    -4.9493665578e-02
 1  1  3     1.4727426016e-01
 1  2  1    -4.9493665578e-02
 1  2  2     0.0000000000e+00
 1  2  3     0.0000000000e+00
 1  3  1     1.4718985982e-01
 1  3  2     0.0000000000e+00
 1  3  3     0.0000000000e+00
 2  1  1    -4.9493665578e-02
 2  1  2     0.0000000000e+00
 2  1  3     0.0000000000e+00
 2  2  1     0.0000000000e+00
 2  2  2     4.9493665578e-02
 2  2  3     1.4727426016e-01
 2  3  1     0.0000000000e+00
 2  3  2     1.4718985982e-01
 2  3  3     0.0000000000e+00
 3  1  1     1.4727426016e-01
 3  1  2     0.0000000000e+00
 3  1  3     0.0000000000e+00
 3  2  1     0.0000000000e+00
 3  2  2     1.4727426016e-01
 3  2  3     0.0000000000e+00
 3  3  1     0.0000000000e+00
 3  3  2     0.0000000000e+00
 3  3  3    -1.3737608373e-01

   22
0.0000000000e+00 0.0000000000e+00 0.0000000000e+00
0.0000000000e+00 0.0000000000e+00 0.0000000000e+00
     1      2      2
 1  1  1     0.0000000000e+00
 1  1  2     4.9493665578e-02
 1  1  3    -1.4727426016e-01
 1  2  1     4.9493665578e-02
 1  2  2     0.0000000000e+00
 1  2  3     0.0000000000e+00
 1  3  1    -1.4727426016e-01
 1  3  2     0.0000000000e+00
 1  3  3     0.0000000000e+00
 2  1  1     4.9493665578e-02
 2  1  2     0.0000000000e+00
 2  1  3     0.0000000000e+00
 2  2  1     0.0000000000e+00
 2  2  2    -4.9493665578e-02
 2  2  3    -1.4727426016e-01
 2  3  1     0.0000000000e+00
 2  3  2    -1.4727426016e-01
 2  3  3     0.0000000000e+00
 3  1  1    -1.4718985982e-01
 3  1  2     0.0000000000e+00
 3  1  3     0.0000000000e+00
 3  2  1     0.0000000000e+00
 3  2  2    -1.4718985982e-01
 3  2  3     0.0000000000e+00
 3  3  1     0.0000000000e+00
 3  3  2     0.0000000000e+00
 3  3  3     1.3737608373e-01

   23
0.0000000000e+00 0.0000000000e+00 0.0000000000e+00
0.0000000000e+00 0.0000000000e+00 0.0000000000e+00
     1      3      1
 1  1  1     0.0000000000e+00
 1  1  2     8.6401129318e+00
 1  1  3    -4.0665570764e-03
 1  2  1     8.0908744080e+00
 1  2  2     0.0000000000e+00
 1  2  3     0.0000000000e+00
 1  3  1    -8.7127519504e-03
 1  3  2     0.0000000000e+00
 1  3  3     0.0000000000e+00
 2  1  1     8.6401129318e+00
 2  1  2     0.0000000000e+00
 2  1  3     0.0000000000e+00
 2  2  1     0.0000000000e+00
 2  2  2    -1.5896982083e+02
 2  2  3    -1.3597609537e-01
 2  3  1     0.0000000000e+00
 2  3  2    -1.1368654395e-01
 2  3  3     1.0776038454e+01
 3  1  1    -4.0665570764e-03
 3  1  2     0.0000000000e+00
 3  1  3     0.0000000000e+00
 3  2  1     0.0000000000e+00
 3  2  2    -1.3597609537e-01
 3  2  3     1.0483139871e+01
 3  3  1     0.0000000000e+00
 3  3  2     1.0776038454e+01
 3  3  3     1.2895642469e-01

   24
0.0000000000e+00 0.0000000000e+00 0.0000000000e+00
0.0000000000e+00 0.0000000000e+00 0.0000000000e+00
     1      3      3
 1  1  1     0.0000000000e+00
 1  1  2    -1.0998905933e+01
 1  1  3     3.9444185643e-03
 1  2  1    -1.0998905933e+01
 1  2  2     0.0000000000e+00
 1  2  3     0.0000000000e+00
 1  3  1     3.9444185643e-03
 1  3  2     0.0000000000e+00
 1  3  3     0.0000000000e+00
 2  1  1    -1.0768575904e+01
 2  1  2     0.0000000000e+00
 2  1  3     0.0000000000e+00
 2  2  1     0.0000000000e+00
 2  2  2     1.5831462565e+02
 2  2  3     1.2248173325e-01
 2  3  1     0.0000000000e+00
 2  3  2     1.2248173325e-01
 2  3  3    -1.0489994220e+01
 3  1  1    -1.1604754779e-01
 3  1  2     0.0000000000e+00
 3  1  3     0.0000000000e+00
 3  2  1     0.0000000000e+00
 3  2  2     7.6192286931e-02
 3  2  3    -1.2868706533e+01
 3  3  1     0.0000000000e+00
 3  3  2    -1.2868706533e+01
 3  3  3     4.0647798176e-02

   25
0.0000000000e+00 0.0000000000e+00 0.0000000000e+00
2.5040542898e+00 0.0000000000e+00 0.0000000000e+00
     1      3      1
 1  1  1     9.9127772545e-01
 1  1  2     2.4542310305e-01
 1  1  3     2.7417553297e-03
 1  2  1    -8.0460235537e-01
 1  2  2    -1.1505108318e-01
 1  2  3    -2.6871984110e-02
 1  3  1    -3.8481683135e-03
 1  3  2     6.4680402637e-03
 1  3  3    -4.8308057163e-01
 2  1  1     5.6041226335e-01
 2  1  2     4.8425322417e-01
 2  1  3    -3.8788932814e-03
 2  2  1    -8.9709252756e-01
 2  2  2    -1.1820185537e+00
 2  2  3    -6.4455899210e-03
 2  3  1     4.7592762788e-03
 2  3  2    -5.1574684329e-03
 2  3  3     1.1216971582e-01
 3  1  1    -4.5524590124e-03
 3  1  2     3.2150057855e-03
 3  1  3    -2.4041534435e-02
 3  2  1     2.1227212263e-03
 3  2  2     5.8135320663e-03
 3  2  3    -1.2382051386e-01
 3  3  1     4.7071983549e-01
 3  3  2     7.9436216848e-01
 3  3  3    -1.3411627066e-03

   26
0.0000000000e+00 0.0000000000e+00 0.0000000000e+00
2.5040542898e+00 0.0000000000e+00 0.0000000000e+00
     1      3      3
 1  1  1     4.1042808934e-01
 1  1  2    -4.5563911653e-01
 1  1  3     2.8609078130e-03
 1  2  1     4.3979651457e-01
 1  2  2     8.1492598981e-02
 1  2  3     4.7690435675e-03
 1  3  1     3.3924943975e-03
 1  3  2     6.5272870979e-04
 1  3  3     1.0499010685e-01
 2  1  1     1.0699888021e+00
 2  1  2    -1.0135069145e+00
 2  1  3     8.8966172545e-03
 2  2  1    -1.6883699695e+00
 2  2  2     4.5454622884e-01
 2  2  3    -1.8503692205e-02
 2  3  1    -5.1845644196e-03
 2  3  2    -6.7355370786e-04
 2  3  3    -4.4800046912e-02
 3  1  1    -2.9960774896e-03
 3  1  2     5.5806462888e-03
 3  1  3    -2.4697142916e-01
 3  2  1    -1.2718218001e-02
 3  2  2    -4.2360546375e-03
 3  2  3    -2.1867432396e-01
 3  3  1     4.1256890509e-01
 3  3  2    -4.1553372058e-01
 3  3  3     4.2251311701e-03

   27
0.0000000000e+00 0.0000000000e+00 0.0000000000e+00
-2.5040542898e+00 0.0000000000e+00 0.0000000000e+00
     1      3      1
 1  1  1    -9.9127772545e-01
 1  1  2     2.4542310305e-01
 1  1  3     2.7417553297e-03
 1  2  1    -8.0460235537e-01
 1  2  2     1.1505108318e-01
 1  2  3     2.6871984110e-02
 1  3  1    -3.8481683135e-03
 1  3  2    -6.4680402637e-03
 1  3  3     4.8308057163e-01
 2  1  1     5.6041226335e-01
 2  1  2    -4.8425322417e-01
 2  1  3     3.8788932814e-03
 2  2  1     8.9709252756e-01
 2  2  2    -1.1820185537e+00
 2  2  3    -6.4455899210e-03
 2  3  1    -4.7592762788e-03
 2  3  2    -5.1574684329e-03
 2  3  3     1.1216971582e-01
 3  1  1    -4.5524590124e-03
 3  1  2    -3.2150057855e-03
 3  1  3     2.4041534435e-02
 3  2  1    -2.1227212263e-03
 3  2  2     5.8135320663e-03
 3  2  3    -1.2382051386e-01
 3  3  1    -4.7071983549e-01
 3  3  2     7.9436216848e-01
 3  3  3    -1.3411627066e-03

   28
0.0000000000e+00 0.0000000000e+00 0.0000000000e+00
-2.5040542898e+00 0.0000000000e+00 0.0000000000e+00
     1      3      3
 1  1  1    -4.1042808934e-01
 1  1  2    -4.5563911653e-01
 1  1  3     2.8609078130e-03
 1  2  1     4.3979651457e-01
 1  2  2    -8.1492598981e-02
 1  2  3    -4.7690435675e-03
 1  3  1     3.3924943975e-03
 1  3  2    -6.5272870979e-04
 1  3  3    -1.0499010685e-01
 2  1  1     1.0699888021e+00
 2  1  2     1.0135069145e+00
 2  1  3    -8.8966172545e-03
 2  2  1     1.6883699695e+00
 2  2  2     4.5454622884e-01
 2  2  3    -1.8503692205e-02
 2  3  1     5.1845644196e-03
 2  3  2    -6.7355370786e-04
 2  3  3    -4.4800046912e-02
 3  1  1    -2.9960774896e-03
 3  1  2    -5.5806462888e-03
 3  1  3     2.4697142916e-01
 3  2  1     1.2718218001e-02
 3  2  2    -4.2360546375e-03
 3  2  3    -2.1867432396e-01
 3  3  1    -4.1256890509e-01
 3  3  2    -4.1553372058e-01
 3  3  3     4.2251311701e-03

   29
0.0000000000e+00 0.0000000000e+00 0.0000000000e+00
-1.2520271449e+00 2.1685746274e+00 0.0000000000e+00
     1      3      1
 1  1  1     1.4103574956e+00
 1  1  2     1.2566467144e+00
 1  1  3    -1.7029564888e-02
 1  2  1     7.4586564156e-01
 1  2  2     7.6501875508e-01
 1  2  3    -2.2979392707e-03
 1  3  1     8.3516437110e-03
 1  3  2    -2.8486106361e-03
 1  3  3     1.6684356271e+00
 2  1  1    -7.7766305112e-01
 2  1  2     1.0548292762e+00
 2  1  3     1.0330671248e-02
 2  2  1    -4.0949053563e-01
 2  2  2     6.7741060473e-01
 2  2  3     6.2372390941e-02
 2  3  1     1.3312223690e-03
 2  3  2     9.2277082355e-03
 2  3  3    -2.8128172549e-02
 3  1  1     4.6000176961e-02
 3  1  2    -3.8688177694e-02
 3  1  3     9.6117076286e-01
 3  2  1    -2.6059567176e-02
 3  2  2    -6.5735090762e-04
 3  2  3     5.5493219868e-01
 3  3  1     8.0985810154e-01
 3  3  2     1.4589717239e+00
 3  3  3    -4.6487876975e-02

   30
0.0000000000e+00 0.0000000000e+00 0.0000000000e+00
-1.2520271449e+00 2.1685746274e+00 0.0000000000e+00
     1      3      3
 1  1  1    -8.8646145344e-01
 1  1  2     8.1859606219e-01
 1  1  3     4.9488732856e-03
 1  2  1    -1.1862321278e-01
 1  2  2     1.2645212004e-01
 1  2  3    -9.4159484629e-04
 1  3  1    -3.2380490656e-03
 1  3  2    -7.0955323105e-04
 1  3  3    -4.6806972577e-01
 2  1  1    -3.5276393049e-01
 2  1  2    -9.6690755302e-01
 2  1  3    -2.4277650140e-03
 2  2  1     3.0235040527e-01
 2  2  2    -3.8557759073e-01
 2  2  3    -2.2502654536e-02
 2  3  1     9.6068162673e-04
 2  3  2    -4.4979484471e-03
 2  3  3    -1.3120508176e-01
 3  1  1     0.0000000000e+00
 3  1  2     9.3001127744e-03
 3  1  3    -6.2969586517e-01
 3  2  1     3.0926585536e-03
 3  2  2    -6.9988732458e-03
 3  2  3     2.5794301553e-01
 3  3  1    -7.5364680906e-01
 3  3  2     2.7296895071e-01
 3  3  3     3.2805912023e-03

   31
0.0000000000e+00 0.0000000000e+00 0.0000000000e+00
1.2520271449e+00 2.1685746274e+00 0.0000000000e+00
     1      3      1
 1  1  1    -1.4103574956e+00
 1  1  2     1.2566467144e+00
 1  1  3    -1.7029564888e-02
 1  2  1     7.4586564156e-01
 1  2  2    -7.6501875508e-01
 1  2  3     2.2979392707e-03
 1  3  1     8.3516437110e-03
 1  3  2     2.8486106361e-03
 1  3  3    -1.6684356271e+00
 2  1  1    -7.7766305112e-01
 2  1  2    -1.0548292762e+00
 2  1  3    -1.0330671248e-02
 2  2  1     4.0949053563e-01
 2  2  2     6.7741060473e-01
 2  2  3     6.2372390941e-02
 2  3  1    -1.3312223690e-03
 2  3  2     9.2277082355e-03
 2  3  3    -2.8128172549e-02
 3  1  1     4.6000176961e-02
 3  1  2     3.8688177694e-02
 3  1  3    -9.6117076286e-01
 3  2  1     2.6059567176e-02
 3  2  2    -6.5735090762e-04
 3  2  3     5.5493219868e-01
 3  3  1    -8.0985810154e-01
 3  3  2     1.4589717239e+00
 3  3  3    -4.6487876975e-02

   32
0.0000000000e+00 0.0000000000e+00 0.0000000000e+00
1.2520271449e+00 2.1685746274e+00 0.0000000000e+00
     1      3      3
 1  1  1     8.8646145344e-01
 1  1  2     8.1859606219e-01
 1  1  3     4.9488732856e-03
 1  2  1    -1.1862321278e-01
 1  2  2    -1.2645212004e-01
 1  2  3     9.4159484629e-04
 1  3  1    -3.2380490656e-03
 1  3  2     7.0955323105e-04
 1  3  3     4.6806972577e-01
 2  1  1    -3.5276393049e-01
 2  1  2     9.6690755302e-01
 2  1  3     2.4277650140e-03
 2  2  1    -3.0235040527e-01
 2  2  2    -3.8557759073e-01
 2  2  3    -2.2502654536e-02
 2  3  1    -9.6068162673e-04
 2  3  2    -4.4979484471e-03
 2  3  3    -1.3120508176e-01
 3  1  1     0.0000000000e+00
 3  1  2    -9.3001127744e-03
 3  1  3     6.2969586517e-01
 3  2  1    -3.0926585536e-03
 3  2  2    -6.9988732458e-03