 2918

    1
0.0000000000e+00 0.0000000000e+00 0.0000000000e+00
0.0000000000e+00 0.0000000000e+00 0.0000000000e+00
     1      1      1
 1  1  1     0.0000000000e+00
 1  1  2     0.0000000000e+00
 1  1  3     0.0000000000e+00
 1  2  1     0.0000000000e+00
 1  2  2     0.0000000000e+00
 1  2  3     0.0000000000e+00
 1  3  1     0.0000000000e+00
 1  3  2     0.0000000000e+00
 1  3  3     0.0000000000e+00
 2  1  1     0.0000000000e+00
 2  1  2     0.0000000000e+00
 2  1  3     0.0000000000e+00
 2  2  1     0.0000000000e+00
 2  2  2     0.0000000000e+00
 2  2  3     0.0000000000e+00
 2  3  1     0.0000000000e+00
 2  3  2     0.0000000000e+00
 2  3  3     0.0000000000e+00
 3  1  1     0.0000000000e+00
 3  1  2     0.0000000000e+00
 3  1  3     0.0000000000e+00
 3  2  1     0.0000000000e+00
 3  2  2     0.0000000000e+00
 3  2  3     0.0000000000e+00
 3  3  1     0.0000000000e+00
 3  3  2     0.0000000000e+00
 3  3  3     0.0000000000e+00

    2
0.0000000000e+00 0.0000000000e+00 0.0000000000e+00
0.0000000000e+00 0.0000000000e+00 0.0000000000e+00
     1      1      2
 1  1  1     1.9793807229e-03
 1  1  2     1.8995979840e-02
 1  1  3     1.8995979840e-02
 1  2  1     1.5918497805e-02
 1  2  2    -1.5918497805e-02
 1  2  3    -2.8837541336e-02
 1  3  1     1.5918497805e-02
 1  3  2    -2.8837541336e-02
 1  3  3    -1.5918497805e-02
 2  1  1     1.5918497805e-02
 2  1  2    -1.5918497805e-02
 2  1  3    -2.8837541336e-02
 2  2  1    -1.8995979840e-02
 2  2  2    -1.9793807229e-03
 2  2  3     1.8995979840e-02
 2  3  1    -2.8837541336e-02
 2  3  2     1.5918497805e-02
 2  3  3     1.5918497805e-02
 3  1  1     1.5918497805e-02
 3  1  2    -2.8837541336e-02
 3  1  3    -1.5918497805e-02
 3  2  1    -2.8837541336e-02
 3  2  2     1.5918497805e-02
 3  2  3     1.5918497805e-02
 3  3  1    -1.8995979840e-02
 3  3  2     1.8995979840e-02
 3  3  3    -1.9793807229e-03

    3
0.0000000000e+00 0.0000000000e+00 0.0000000000e+00
-2.8478820630e+00 0.0000000000e+00 2.8478820630e+00
     1      1      1
 1  1  1     6.6848684804e-02
 1  1  2     0.0000000000e+00
 1  1  3    -1.2098259246e-01
 1  2  1     0.0000000000e+00
 1  2  2    -7.2508312914e-02
 1  2  3     0.0000000000e+00
 1  3  1    -1.5866198441e-01
 1  3  2     0.0000000000e+00
 1  3  3     1.5866198441e-01
 2  1  1     0.0000000000e+00
 2  1  2    -7.2508312914e-02
 2  1  3     0.0000000000e+00
 2  2  1    -5.7049468381e-02
 2  2  2     0.0000000000e+00
 2  2  3     5.7049468381e-02
 2  3  1     0.0000000000e+00
 2  3  2     7.2508312914e-02
 2  3  3     0.0000000000e+00
 3  1  1    -1.5866198441e-01
 3  1  2     0.0000000000e+00
 3  1  3     1.5866198441e-01
 3  2  1     0.0000000000e+00
 3  2  2     7.2508312914e-02
 3  2  3     0.0000000000e+00
 3  3  1     1.2098259246e-01
 3  3  2     0.0000000000e+00
 3  3  3    -6.6848684804e-02

    4
0.0000000000e+00 0.0000000000e+00 0.0000000000e+00
5.6957641260e+00 0.0000000000e+00 -5.6957641260e+00
     1      1      2
 1  1  1    -1.9793807229e-03
 1  1  2     1.8995979840e-02
 1  1  3    -1.8995979840e-02
 1  2  1     1.5918497805e-02
 1  2  2     1.5918497805e-02
 1  2  3    -2.8837541336e-02
 1  3  1    -1.5918497805e-02
 1  3  2    -2.8837541336e-02
 1  3  3     1.5918497805e-02
 2  1  1     1.5918497805e-02
 2  1  2     1.5918497805e-02
 2  1  3    -2.8837541336e-02
 2  2  1     1.8995979840e-02
 2  2  2    -1.9793807229e-03
 2  2  3    -1.8995979840e-02
 2  3  1    -2.8837541336e-02
 2  3  2    -1.5918497805e-02
 2  3  3     1.5918497805e-02
 3  1  1    -1.5918497805e-02
 3  1  2    -2.8837541336e-02
 3  1  3     1.5918497805e-02
 3  2  1    -2.8837541336e-02
 3  2  2    -1.5918497805e-02
 3  2  3     1.5918497805e-02
 3  3  1     1.8995979840e-02
 3  3  2     1.8995979840e-02
 3  3  3     1.9793807229e-03

    5
0.0000000000e+00 0.0000000000e+00 0.0000000000e+00
2.8478820630e+00 0.0000000000e+00 -2.8478820630e+00
     1      1      1
 1  1  1    -6.6848684804e-02
 1  1  2     0.0000000000e+00
 1  1  3     1.2098259246e-01
 1  2  1     0.0000000000e+00
 1  2  2     7.2508312914e-02
 1  2  3     0.0000000000e+00
 1  3  1     1.5866198441e-01
 1  3  2     0.0000000000e+00
 1  3  3    -1.5866198441e-01
 2  1  1     0.0000000000e+00
 2  1  2     7.2508312914e-02
 2  1  3     0.0000000000e+00
 2  2  1     5.7049468381e-02
 2  2  2     0.0000000000e+00
 2  2  3    -5.7049468381e-02
 2  3  1     0.0000000000e+00
 2  3  2    -7.2508312914e-02
 2  3  3     0.0000000000e+00
 3  1  1     1.5866198441e-01
 3  1  2     0.0000000000e+00
 3  1  3    -1.5866198441e-01
 3  2  1     0.0000000000e+00
 3  2  2    -7.2508312914e-02
 3  2  3     0.0000000000e+00
 3  3  1    -1.2098259246e-01
 3  3  2     0.0000000000e+00
 3  3  3     6.6848684804e-02

    6
0.0000000000e+00 0.0000000000e+00 0.0000000000e+00
2.8478820630e+00 0.0000000000e+00 -2.8478820630e+00
     1      1      2
 1  1  1     0.0000000000e+00
 1  1  2     6.6738376752e-02
 1  1  3     0.0000000000e+00
 1  2  1    -1.3477083507e-02
 1  2  2     0.0000000000e+00
 1  2  3     0.0000000000e+00
 1  3  1     0.0000000000e+00
 1  3  2     0.0000000000e+00
 1  3  3     0.0000000000e+00
 2  1  1    -1.3477083507e-02
 2  1  2     0.0000000000e+00
 2  1  3     0.0000000000e+00
 2  2  1     0.0000000000e+00
 2  2  2    -1.8034580198e+00
 2  2  3     0.0000000000e+00
 2  3  1     0.0000000000e+00
 2  3  2     0.0000000000e+00
 2  3  3    -1.3477083507e-02
 3  1  1     0.0000000000e+00
 3  1  2     0.0000000000e+00
 3  1  3     0.0000000000e+00
 3  2  1     0.0000000000e+00
 3  2  2     0.0000000000e+00
 3  2  3    -1.3477083507e-02
 3  3  1     0.0000000000e+00
 3  3  2     6.6738376752e-02
 3  3  3     0.0000000000e+00

    7
0.0000000000e+00 0.0000000000e+00 0.0000000000e+00
0.0000000000e+00 2.8478820630e+00 2.8478820630e+00
     1      1      1
 1  1  1     0.0000000000e+00
 1  1  2     5.7049468381e-02
 1  1  3     5.7049468381e-02
 1  2  1     7.2508312914e-02
 1  2  2     0.0000000000e+00
 1  2  3     0.0000000000e+00
 1  3  1     7.2508312914e-02
 1  3  2     0.0000000000e+00
 1  3  3     0.0000000000e+00
 2  1  1     7.2508312914e-02
 2  1  2     0.0000000000e+00
 2  1  3     0.0000000000e+00
 2  2  1     0.0000000000e+00
 2  2  2    -6.6848684804e-02
 2  2  3    -1.2098259246e-01
 2  3  1     0.0000000000e+00
 2  3  2    -1.5866198441e-01
 2  3  3    -1.5866198441e-01
 3  1  1     7.2508312914e-02
 3  1  2     0.0000000000e+00
 3  1  3     0.0000000000e+00
 3  2  1     0.0000000000e+00
 3  2  2    -1.5866198441e-01
 3  2  3    -1.5866198441e-01
 3  3  1     0.0000000000e+00
 3  3  2    -1.2098259246e-01
 3  3  3    -6.6848684804e-02

    8
0.0000000000e+00 0.0000000000e+00 0.0000000000e+00
5.6957641260e+00 2.8478820630e+00 -2.8478820630e+00
     1      1      2
 1  1  1    -7.6426167515e-03
 1  1  2     6.7300952261e-03
 1  1  3     0.0000000000e+00
 1  2  1    -3.9480818994e-03
 1  2  2     1.4655382144e-02
 1  2  3     0.0000000000e+00
 1  3  1     0.0000000000e+00
 1  3  2     0.0000000000e+00
 1  3  3    -3.8881087986e-03
 2  1  1    -3.9480818994e-03
 2  1  2     1.4655382144e-02
 2  1  3     0.0000000000e+00
 2  2  1    -1.1090195240e-02
 2  2  2     5.6255170707e-03
 2  2  3     0.0000000000e+00
 2  3  1     0.0000000000e+00
 2  3  2     0.0000000000e+00
 2  3  3    -7.0461403228e-03
 3  1  1     0.0000000000e+00
 3  1  2     0.0000000000e+00
 3  1  3    -3.8881087986e-03
 3  2  1     0.0000000000e+00
 3  2  2     0.0000000000e+00
 3  2  3    -7.0461403228e-03
 3  3  1    -4.4780316508e-03
 3  3  2    -8.8056982617e-03
 3  3  3     0.0000000000e+00

    9
0.0000000000e+00 0.0000000000e+00 0.0000000000e+00
2.8478820630e+00 2.8478820630e+00 0.0000000000e+00
     1      1      1
 1  1  1    -6.6848684804e-02
 1  1  2    -1.2098259246e-01
 1  1  3     0.0000000000e+00
 1  2  1    -1.5866198441e-01
 1  2  2    -1.5866198441e-01
 1  2  3     0.0000000000e+00
 1  3  1     0.0000000000e+00
 1  3  2     0.0000000000e+00
 1  3  3     7.2508312914e-02
 2  1  1    -1.5866198441e-01
 2  1  2    -1.5866198441e-01
 2  1  3     0.0000000000e+00
 2  2  1    -1.2098259246e-01
 2  2  2    -6.6848684804e-02
 2  2  3     0.0000000000e+00
 2  3  1     0.0000000000e+00
 2  3  2     0.0000000000e+00
 2  3  3     7.2508312914e-02
 3  1  1     0.0000000000e+00
 3  1  2     0.0000000000e+00
 3  1  3     7.2508312914e-02
 3  2  1     0.0000000000e+00
 3  2  2     0.0000000000e+00
 3  2  3     7.2508312914e-02
 3  3  1     5.7049468381e-02
 3  3  2     5.7049468381e-02
 3  3  3     0.0000000000e+00

   10
0.0000000000e+00 0.0000000000e+00 0.0000000000e+00
2.8478820630e+00 2.8478820630e+00 0.0000000000e+00
     1      1      2
 1  1  1     0.0000000000e+00
 1  1  2    -8.8056982617e-03
 1  1  3    -4.4780316508e-03
 1  2  1    -7.0461403228e-03
 1  2  2     0.0000000000e+00
 1  2  3     0.0000000000e+00
 1  3  1    -3.8881087986e-03
 1  3  2     0.0000000000e+00
 1  3  3     0.0000000000e+00
 2  1  1    -7.0461403228e-03
 2  1  2     0.0000000000e+00
 2  1  3     0.0000000000e+00
 2  2  1     0.0000000000e+00
 2  2  2     5.6255170707e-03
 2  2  3    -1.1090195240e-02
 2  3  1     0.0000000000e+00
 2  3  2     1.4655382144e-02
 2  3  3    -3.9480818994e-03
 3  1  1    -3.8881087986e-03
 3  1  2     0.0000000000e+00
 3  1  3     0.0000000000e+00
 3  2  1     0.0000000000e+00
 3  2  2     1.4655382144e-02
 3  2  3    -3.9480818994e-03
 3  3  1     0.0000000000e+00
 3  3  2     6.7300952261e-03
 3  3  3    -7.6426167515e-03

   11
0.0000000000e+00 0.0000000000e+00 0.0000000000e+00
0.0000000000e+00 -5.6957641260e+00 -5.6957641260e+00
     1      1      2
 1  1  1     1.9793807229e-03
 1  1  2    -1.8995979840e-02
 1  1  3    -1.8995979840e-02
 1  2  1    -1.5918497805e-02
 1  2  2    -1.5918497805e-02
 1  2  3    -2.8837541336e-02
 1  3  1    -1.5918497805e-02
 1  3  2    -2.8837541336e-02
 1  3  3    -1.5918497805e-02
 2  1  1    -1.5918497805e-02
 2  1  2    -1.5918497805e-02
 2  1  3    -2.8837541336e-02
 2  2  1    -1.8995979840e-02
 2  2  2     1.9793807229e-03
 2  2  3    -1.8995979840e-02
 2  3  1    -2.8837541336e-02
 2  3  2    -1.5918497805e-02
 2  3  3    -1.5918497805e-02
 3  1  1    -1.5918497805e-02
 3  1  2    -2.8837541336e-02
 3  1  3    -1.5918497805e-02
 3  2  1    -2.8837541336e-02
 3  2  2    -1.5918497805e-02
 3  2  3    -1.5918497805e-02
 3  3  1    -1.8995979840e-02
 3  3  2    -1.8995979840e-02
 3  3  3     1.9793807229e-03

   12
0.0000000000e+00 0.0000000000e+00 0.0000000000e+00
-2.8478820630e+00 -5.6957641260e+00 -2.8478820630e+00
     1      1      2
 1  1  1    -5.6255170707e-03
 1  1  2     1.1090195240e-02
 1  1  3     0.0000000000e+00
 1  2  1    -1.4655382144e-02
 1  2  2     3.9480818994e-03
 1  2  3     0.0000000000e+00
 1  3  1     0.0000000000e+00
 1  3  2     0.0000000000e+00
 1  3  3     7.0461403228e-03
 2  1  1    -1.4655382144e-02
 2  1  2     3.9480818994e-03
 2  1  3     0.0000000000e+00
 2  2  1    -6.7300952261e-03
 2  2  2     7.6426167515e-03
 2  2  3     0.0000000000e+00
 2  3  1     0.0000000000e+00
 2  3  2     0.0000000000e+00
 2  3  3     3.8881087986e-03
 3  1  1     0.0000000000e+00
 3  1  2     0.0000000000e+00
 3  1  3     7.0461403228e-03
 3  2  1     0.0000000000e+00
 3  2  2     0.0000000000e+00
 3  2  3     3.8881087986e-03
 3  3  1     8.8056982617e-03
 3  3  2     4.4780316508e-03
 3  3  3     0.0000000000e+00

   13
0.0000000000e+00 0.0000000000e+00 0.0000000000e+00
2.8478820630e+00 -5.6957641260e+00 -8.5436461890e+00
     1      1      2
 1  1  1     0.0000000000e+00
 1  1  2     4.4780316508e-03
 1  1  3     8.8056982617e-03
 1  2  1     3.8881087986e-03
 1  2  2     0.0000000000e+00
 1  2  3     0.0000000000e+00
 1  3  1     7.0461403228e-03
 1  3  2     0.0000000000e+00
 1  3  3     0.0000000000e+00
 2  1  1     3.8881087986e-03
 2  1  2     0.0000000000e+00
 2  1  3     0.0000000000e+00
 2  2  1     0.0000000000e+00
 2  2  2     7.6426167515e-03
 2  2  3    -6.7300952261e-03
 2  3  1     0.0000000000e+00
 2  3  2     3.9480818994e-03
 2  3  3    -1.4655382144e-02
 3  1  1     7.0461403228e-03
 3  1  2     0.0000000000e+00
 3  1  3     0.0000000000e+00
 3  2  1     0.0000000000e+00
 3  2  2     3.9480818994e-03
 3  2  3    -1.4655382144e-02
 3  3  1     0.0000000000e+00
 3  3  2     1.1090195240e-02
 3  3  3    -5.6255170707e-03

   14
0.0000000000e+00 0.0000000000e+00 0.0000000000e+00
0.0000000000e+00 -2.8478820630e+00 -2.8478820630e+00
     1      1      1
 1  1  1     0.0000000000e+00
 1  1  2    -5.7049468381e-02
 1  1  3    -5.7049468381e-02
 1  2  1    -7.2508312914e-02
 1  2  2     0.0000000000e+00
 1  2  3     0.0000000000e+00
 1  3  1    -7.2508312914e-02
 1  3  2     0.0000000000e+00
 1  3  3     0.0000000000e+00
 2  1  1    -7.2508312914e-02
 2  1  2     0.0000000000e+00
 2  1  3     0.0000000000e+00
 2  2  1     0.0000000000e+00
 2  2  2     6.6848684804e-02
 2  2  3     1.2098259246e-01
 2  3  1     0.0000000000e+00
 2  3  2     1.5866198441e-01
 2  3  3     1.5866198441e-01
 3  1  1    -7.2508312914e-02
 3  1  2     0.0000000000e+00
 3  1  3     0.0000000000e+00
 3  2  1     0.0000000000e+00
 3  2  2     1.5866198441e-01
 3  2  3     1.5866198441e-01
 3  3  1     0.0000000000e+00
 3  3  2     1.2098259246e-01
 3  3  3     6.6848684804e-02

   15
0.0000000000e+00 0.0000000000e+00 0.0000000000e+00
0.0000000000e+00 -2.8478820630e+00 -2.8478820630e+00
     1      1      2
 1  1  1     1.8034580198e+00
 1  1  2     0.0000000000e+00
 1  1  3     0.0000000000e+00
 1  2  1     0.0000000000e+00
 1  2  2     1.3477083507e-02
 1  2  3     0.0000000000e+00
 1  3  1     0.0000000000e+00
 1  3  2     0.0000000000e+00
 1  3  3     1.3477083507e-02
 2  1  1     0.0000000000e+00
 2  1  2     1.3477083507e-02
 2  1  3     0.0000000000e+00
 2  2  1    -6.6738376752e-02
 2  2  2     0.0000000000e+00
 2  2  3     0.0000000000e+00
 2  3  1     0.0000000000e+00
 2  3  2     0.0000000000e+00
 2  3  3     0.0000000000e+00
 3  1  1     0.0000000000e+00
 3  1  2     0.0000000000e+00
 3  1  3     1.3477083507e-02
 3  2  1     0.0000000000e+00
 3  2  2     0.0000000000e+00
 3  2  3     0.0000000000e+00
 3  3  1    -6.6738376752e-02
 3  3  2     0.0000000000e+00
 3  3  3     0.0000000000e+00

   16
0.0000000000e+00 0.0000000000e+00 0.0000000000e+00
-2.8478820630e+00 -2.8478820630e+00 0.0000000000e+00
     1      1      1
 1  1  1     6.6848684804e-02
 1  1  2     1.2098259246e-01
 1  1  3     0.0000000000e+00
 1  2  1     1.5866198441e-01
 1  2  2     1.5866198441e-01
 1  2  3     0.0000000000e+00
 1  3  1     0.0000000000e+00
 1  3  2     0.0000000000e+00
 1  3  3    -7.2508312914e-02
 2  1  1     1.5866198441e-01
 2  1  2     1.5866198441e-01
 2  1  3     0.0000000000e+00
 2  2  1     1.2098259246e-01
 2  2  2     6.6848684804e-02
 2  2  3     0.0000000000e+00
 2  3  1     0.0000000000e+00
 2  3  2     0.0000000000e+00
 2  3  3    -7.2508312914e-02
 3  1  1     0.0000000000e+00
 3  1  2     0.0000000000e+00
 3  1  3    -7.2508312914e-02
 3  2  1     0.0000000000e+00
 3  2  2     0.0000000000e+00
 3  2  3    -7.2508312914e-02
 3  3  1    -5.7049468381e-02
 3  3  2    -5.7049468381e-02
 3  3  3     0.0000000000e+00

   17
0.0000000000e+00 0.0000000000e+00 0.0000000000e+00
-2.8478820630e+00 -2.8478820630e+00 0.0000000000e+00
     1      1      2
 1  1  1    -5.6255170707e-03
 1  1  2     0.0000000000e+00
 1  1  3    -1.1090195240e-02
 1  2  1     0.0000000000e+00
 1  2  2     7.0461403228e-03
 1  2  3     0.0000000000e+00
 1  3  1     1.4655382144e-02
 1  3  2     0.0000000000e+00
 1  3  3     3.9480818994e-03
 2  1  1     0.0000000000e+00
 2  1  2     7.0461403228e-03
 2  1  3     0.0000000000e+00
 2  2  1     8.8056982617e-03
 2  2  2     0.0000000000e+00
 2  2  3    -4.4780316508e-03
 2  3  1     0.0000000000e+00
 2  3  2    -3.8881087986e-03
 2  3  3     0.0000000000e+00
 3  1  1     1.4655382144e-02
 3  1  2     0.0000000000e+00
 3  1  3     3.9480818994e-03
 3  2  1     0.0000000000e+00
 3  2  2    -3.8881087986e-03
 3  2  3     0.0000000000e+00
 3  3  1    -6.7300952261e-03
 3  3  2     0.0000000000e+00
 3  3  3    -7.6426167515e-03

   18
0.0000000000e+00 0.0000000000e+00 0.0000000000e+00
5.6957641260e+00 -2.8478820630e+00 -8.5436461890e+00
     1      1      2
 1  1  1    -7.6426167515e-03
 1  1  2     0.0000000000e+00
 1  1  3    -6.7300952261e-03
 1  2  1     0.0000000000e+00
 1  2  2    -3.8881087986e-03
 1  2  3     0.0000000000e+00
 1  3  1     3.9480818994e-03
 1  3  2     0.0000000000e+00
 1  3  3     1.4655382144e-02
 2  1  1     0.0000000000e+00
 2  1  2    -3.8881087986e-03
 2  1  3     0.0000000000e+00
 2  2  1    -4.4780316508e-03
 2  2  2     0.0000000000e+00
 2  2  3     8.8056982617e-03
 2  3  1     0.0000000000e+00
 2  3  2     7.0461403228e-03
 2  3  3     0.0000000000e+00
 3  1  1     3.9480818994e-03
 3  1  2     0.0000000000e+00
 3  1  3     1.4655382144e-02
 3  2  1     0.0000000000e+00
 3  2  2     7.0461403228e-03
 3  2  3     0.0000000000e+00
 3  3  1    -1.1090195240e-02
 3  3  2     0.0000000000e+00
 3  3  3    -5.6255170707e-03

   19
0.0000000000e+00 0.0000000000e+00 0.0000000000e+00
2.8478820630e+00 -2.8478820630e+00 -5.6957641260e+00
     1      1      2
 1  1  1     0.0000000000e+00
 1  1  2     0.0000000000e+00
 1  1  3    -6.6738376752e-02
 1  2  1     0.0000000000e+00
 1  2  2     0.0000000000e+00
 1  2  3     0.0000000000e+00
 1  3  1     1.3477083507e-02
 1  3  2     0.0000000000e+00
 1  3  3     0.0000000000e+00
 2  1  1     0.0000000000e+00
 2  1  2     0.0000000000e+00
 2  1  3     0.0000000000e+00
 2  2  1     0.0000000000e+00
 2  2  2     0.0000000000e+00
 2  2  3    -6.6738376752e-02
 2  3  1     0.0000000000e+00
 2  3  2     1.3477083507e-02
 2  3  3     0.0000000000e+00
 3  1  1     1.3477083507e-02
 3  1  2     0.0000000000e+00
 3  1  3     0.0000000000e+00
 3  2  1     0.0000000000e+00
 3  2  2     1.3477083507e-02
 3  2  3     0.0000000000e+00
 3  3  1     0.0000000000e+00
 3  3  2     0.0000000000e+00
 3  3  3     1.8034580198e+00

   20
0.0000000000e+00 0.0000000000e+00 0.0000000000e+00
-2.8478820630e+00 2.8478820630e+00 0.0000000000e+00
     1      1      1
 1  1  1     6.6848684804e-02
 1  1  2    -1.2098259246e-01
 1  1  3     0.0000000000e+00
 1  2  1    -1.5866198441e-01
 1  2  2     1.5866198441e-01
 1  2  3     0.0000000000e+00
 1  3  1     0.0000000000e+00
 1  3  2     0.0000000000e+00
 1  3  3    -7.2508312914e-02
 2  1  1    -1.5866198441e-01
 2  1  2     1.5866198441e-01
 2  1  3     0.0000000000e+00
 2  2  1     1.2098259246e-01
 2  2  2    -6.6848684804e-02
 2  2  3     0.0000000000e+00
 2  3  1     0.0000000000e+00
 2  3  2     0.0000000000e+00
 2  3  3     7.2508312914e-02
 3  1  1     0.0000000000e+00
 3  1  2     0.0000000000e+00
 3  1  3    -7.2508312914e-02
 3  2  1     0.0000000000e+00
 3  2  2     0.0000000000e+00
 3  2  3     7.2508312914e-02
 3  3  1    -5.7049468381e-02
 3  3  2     5.7049468381e-02
 3  3  3     0.0000000000e+00

   21
0.0000000000e+00 0.0000000000e+00 0.0000000000e+00
2.8478820630e+00 2.8478820630e+00 -5.6957641260e+00
     1      1      2
 1  1  1     0.0000000000e+00
 1  1  2    -8.8056982617e-03
 1  1  3     4.4780316508e-03
 1  2  1    -7.0461403228e-03
 1  2  2     0.0000000000e+00
 1  2  3     0.0000000000e+00
 1  3  1     3.8881087986e-03
 1  3  2     0.0000000000e+00
 1  3  3     0.0000000000e+00
 2  1  1    -7.0461403228e-03
 2  1  2     0.0000000000e+00
 2  1  3     0.0000000000e+00
 2  2  1     0.0000000000e+00
 2  2  2     5.6255170707e-03
 2  2  3     1.1090195240e-02
 2  3  1     0.0000000000e+00
 2  3  2    -1.4655382144e-02
 2  3  3    -3.9480818994e-03
 3  1  1     3.8881087986e-03
 3  1  2     0.0000000000e+00
 3  1  3     0.0000000000e+00
 3  2  1     0.0000000000e+00
 3  2  2    -1.4655382144e-02
 3  2  3    -3.9480818994e-03
 3  3  1     0.0000000000e+00
 3  3  2     6.7300952261e-03
 3  3  3     7.6426167515e-03

   22
0.0000000000e+00 0.0000000000e+00 0.0000000000e+00
0.0000000000e+00 2.8478820630e+00 -2.8478820630e+00
     1      1      1
 1  1  1     0.0000000000e+00
 1  1  2     5.7049468381e-02
 1  1  3    -5.7049468381e-02
 1  2  1     7.2508312914e-02
 1  2  2     0.0000000000e+00
 1  2  3     0.0000000000e+00
 1  3  1    -7.2508312914e-02
 1  3  2     0.0000000000e+00
 1  3  3     0.0000000000e+00
 2  1  1     7.2508312914e-02
 2  1  2     0.0000000000e+00
 2  1  3     0.0000000000e+00
 2  2  1     0.0000000000e+00
 2  2  2    -6.6848684804e-02
 2  2  3     1.2098259246e-01
 2  3  1     0.0000000000e+00
 2  3  2     1.5866198441e-01
 2  3  3    -1.5866198441e-01
 3  1  1    -7.2508312914e-02
 3  1  2     0.0000000000e+00
 3  1  3     0.0000000000e+00
 3  2  1     0.0000000000e+00
 3  2  2     1.5866198441e-01
 3  2  3    -1.5866198441e-01
 3  3  1     0.0000000000e+00
 3  3  2    -1.2098259246e-01
 3  3  3     6.6848684804e-02

   23
0.0000000000e+00 0.0000000000e+00 0.0000000000e+00
0.0000000000e+00 2.8478820630e+00 -2.8478820630e+00
     1      1      2
 1  1  1     7.6426167515e-03
 1  1  2     6.7300952261e-03
 1  1  3     0.0000000000e+00
 1  2  1    -3.9480818994e-03
 1  2  2    -1.4655382144e-02
 1  2  3     0.0000000000e+00
 1  3  1     0.0000000000e+00
 1  3  2     0.0000000000e+00
 1  3  3     3.8881087986e-03
 2  1  1    -3.9480818994e-03
 2  1  2    -1.4655382144e-02
 2  1  3     0.0000000000e+00
 2  2  1     1.1090195240e-02
 2  2  2     5.6255170707e-03
 2  2  3     0.0000000000e+00
 2  3  1     0.0000000000e+00
 2  3  2     0.0000000000e+00
 2  3  3    -7.0461403228e-03
 3  1  1     0.0000000000e+00
 3  1  2     0.0000000000e+00
 3  1  3     3.8881087986e-03
 3  2  1     0.0000000000e+00
 3  2  2     0.0000000000e+00
 3  2  3    -7.0461403228e-03
 3  3  1     4.4780316508e-03
 3  3  2    -8.8056982617e-03
 3  3  3     0.0000000000e+00

   24
0.0000000000e+00 0.0000000000e+00 0.0000000000e+00
0.0000000000e+00 5.6957641260e+00 0.0000000000e+00
     1      1      1
 1  1  1     0.0000000000e+00
 1  1  2     7.6645330448e-03
 1  1  3     0.0000000000e+00
 1  2  1     1.2186938707e-02
 1  2  2     0.0000000000e+00
 1  2  3     0.0000000000e+00
 1  3  1     0.0000000000e+00
 1  3  2     0.0000000000e+00
 1  3  3     0.0000000000e+00
 2  1  1     1.2186938707e-02
 2  1  2     0.0000000000e+00
 2  1  3     0.0000000000e+00
 2  2  1     0.0000000000e+00
 2  2  2     2.2497153540e-02
 2  2  3     0.0000000000e+00
 2  3  1     0.0000000000e+00
 2  3  2     0.0000000000e+00
 2  3  3     1.2186938707e-02
 3  1  1     0.0000000000e+00
 3  1  2     0.0000000000e+00
 3  1  3     0.0000000000e+00
 3  2  1     0.0000000000e+00
 3  2  2     0.0000000000e+00
 3  2  3     1.2186938707e-02
 3  3  1     0.0000000000e+00
 3  3  2     7.6645330448e-03
 3  3  3     0.0000000000e+00

   25
0.0000000000e+00 0.0000000000e+00 0.0000000000e+00
-2.8478820630e+00 -2.8478820630e+00 -5.6957641260e+00
     1      1      2
 1  1  1    -5.6255170707e-03
 1  1  2     0.0000000000e+00
 1  1  3     1.1090195240e-02
 1  2  1     0.0000000000e+00
 1  2  2     7.0461403228e-03
 1  2  3     0.0000000000e+00
 1  3  1    -1.4655382144e-02
 1  3  2     0.0000000000e+00
 1  3  3     3.9480818994e-03
 2  1  1     0.0000000000e+00
 2  1  2     7.0461403228e-03
 2  1  3     0.0000000000e+00
 2  2  1     8.8056982617e-03
 2  2  2     0.0000000000e+00
 2  2  3     4.4780316508e-03
 2  3  1     0.0000000000e+00
 2  3  2     3.8881087986e-03
 2  3  3     0.0000000000e+00
 3  1  1    -1.4655382144e-02
 3  1  2     0.0000000000e+00
 3  1  3     3.9480818994e-03
 3  2  1     0.0000000000e+00
 3  2  2     3.8881087986e-03
 3  2  3     0.0000000000e+00
 3  3  1    -6.7300952261e-03
 3  3  2     0.0000000000e+00
 3  3  3     7.6426167515e-03

   26
0.0000000000e+00 0.0000000000e+00 0.0000000000e+00
0.0000000000e+00 -2.8478820630e+00 -8.5436461890e+00
     1      1      2
 1  1  1     7.6426167515e-03
 1  1  2     0.0000000000e+00
 1  1  3    -6.7300952261e-03
 1  2  1     0.0000000000e+00
 1  2  2     3.8881087986e-03
 1  2  3     0.0000000000e+00
 1  3  1     3.9480818994e-03
 1  3  2     0.0000000000e+00
 1  3  3    -1.4655382144e-02
 2  1  1     0.0000000000e+00
 2  1  2     3.8881087986e-03
 2  1  3     0.0000000000e+00
 2  2  1     4.4780316508e-03
 2  2  2     0.0000000000e+00
 2  2  3     8.8056982617e-03
 2  3  1     0.0000000000e+00
 2  3  2     7.0461403228e-03
 2  3  3     0.0000000000e+00
 3  1  1     3.9480818994e-03
 3  1  2     0.0000000000e+00
 3  1  3    -1.4655382144e-02
 3  2  1     0.0000000000e+00
 3  2  2     7.0461403228e-03
 3  2  3     0.0000000000e+00
 3  3  1     1.1090195240e-02
 3  3  2     0.0000000000e+00
 3  3  3    -5.6255170707e-03

   27
0.0000000000e+00 0.0000000000e+00 0.0000000000e+00
-2.8478820630e+00 0.0000000000e+00 -2.8478820630e+00
     1      1      1
 1  1  1     6.6848684804e-02
 1  1  2     0.0000000000e+00
 1  1  3     1.2098259246e-01
 1  2  1     0.0000000000e+00
 1  2  2    -7.2508312914e-02
 1  2  3     0.0000000000e+00
 1  3  1     1.5866198441e-01
 1  3  2     0.0000000000e+00
 1  3  3     1.5866198441e-01
 2  1  1     0.0000000000e+00
 2  1  2    -7.2508312914e-02
 2  1  3     0.0000000000e+00
 2  2  1    -5.7049468381e-02
 2  2  2     0.0000000000e+00
 2  2  3    -5.7049468381e-02
 2  3  1     0.0000000000e+00
 2  3  2    -7.2508312914e-02
 2  3  3     0.0000000000e+00
 3  1  1     1.5866198441e-01
 3  1  2     0.0000000000e+00
 3  1  3     1.5866198441e-01
 3  2  1     0.0000000000e+00
 3  2  2    -7.2508312914e-02
 3  2  3     0.0000000000e+00
 3  3  1     1.2098259246e-01
 3  3  2     0.0000000000e+00
 3  3  3     6.6848684804e-02

   28
0.0000000000e+00 0.0000000000e+00 0.0000000000e+00
-2.8478820630e+00 0.0000000000e+00 -2.8478820630e+00
     1      1      2
 1  1  1    -5.6255170707e-03
 1  1  2    -1.1090195240e-02
 1  1  3     0.0000000000e+00
 1  2  1     1.4655382144e-02
 1  2  2     3.9480818994e-03
 1  2  3     0.0000000000e+00
 1  3  1     0.0000000000e+00
 1  3  2     0.0000000000e+00
 1  3  3     7.0461403228e-03
 2  1  1     1.4655382144e-02
 2  1  2     3.9480818994e-03
 2  1  3     0.0000000000e+00
 2  2  1    -6.7300952261e-03
 2  2  2    -7.6426167515e-03
 2  2  3     0.0000000000e+00
 2  3  1     0.0000000000e+00
 2  3  2     0.0000000000e+00
 2  3  3    -3.8881087986e-03
 3  1  1     0.0000000000e+00
 3  1  2     0.0000000000e+00
 3  1  3     7.0461403228e-03
 3  2  1     0.0000000000e+00
 3  2  2     0.0000000000e+00
 3  2  3    -3.8881087986e-03
 3  3  1     8.8056982617e-03
 3  3  2    -4.4780316508e-03
 3  3  3     0.0000000000e+00

   29
0.0000000000e+00 0.0000000000e+00 0.0000000000e+00
-5.6957641260e+00 0.0000000000e+00 0.0000000000e+00
     1      1      1
 1  1  1    -2.2497153540e-02
 1  1  2     0.0000000000e+00
 1  1  3     0.0000000000e+00
 1  2  1     0.0000000000e+00
 1  2  2    -1.2186938707e-02
 1  2  3     0.0000000000e+00
 1  3  1     0.0000000000e+00
 1  3  2     0.0000000000e+00
 1  3  3    -1.2186938707e-02
 2  1  1     0.0000000000e+00
 2  1  2    -1.2186938707e-02
 2  1  3     0.0000000000e+00
 2  2  1    -7.6645330448e-03
 2  2  2     0.0000000000e+00
 2  2  3     0.0000000000e+00
 2  3  1     0.0000000000e+00
 2  3  2     0.0000000000e+00
 2  3  3     0.0000000000e+00
 3  1  1     0.0000000000e+00
 3  1  2     0.0000000000e+00
 3  1  3    -1.2186938707e-02
 3  2  1     0.0000000000e+00
 3  2  2     0.0000000000e+00
 3  2  3     0.0000000000e+00
 3  3  1    -7.6645330448e-03
 3  3  2     0.0000000000e+00
 3  3  3     0.0000000000e+00

   30
0.0000000000e+00 0.0000000000e+00 0.0000000000e+00
2.8478820630e+00 0.0000000000e+00 -8.5436461890e+00
     1      1      2
 1  1  1     0.0000000000e+00
 1  1  2    -4.4780316508e-03
 1  1  3     8.8056982617e-03
 1  2  1    -3.8881087986e-03
 1  2  2     0.0000000000e+00
 1  2  3     0.0000000000e+00
 1  3  1     7.0461403228e-03
 1  3  2     0.0000000000e+00
 1  3  3     0.0000000000e+00
 2  1  1    -3.8881087986e-03
 2  1  2     0.0000000000e+00
 2  1  3     0.0000000000e+00
 2  2  1     0.0000000000e+00
 2  2  2    -7.6426167515e-03
 2  2  3    -6.7300952261e-03
 2  3  1     0.0000000000e+00
 2  3  2     3.9480818994e-03
 2  3  3     1.4655382144e-02
 3  1  1     7.0461403228e-03
 3  1  2     0.0000000000e+00
 3  1  3     0.0000000000e+00
 3  2  1     0.0000000000e+00
 3  2  2     3.9480818994e-03
 3  2  3     1.4655382144e-02
 3  3  1     0.0000000000e+00
 3  3  2    -1.1090195240e-02
 3  3  3    -5.6255170707e-03

   31
0.0000000000e+00 0.0000000000e+00 0.0000000000e+00
0.0000000000e+00 0.0000000000e+00 -5.6957641260e+00
     1      1      1
 1  1  1     0.0000000000e+00
 1  1  2     0.0000000000e+00
 1  1  3    -7.6645330448e-03
 1  2  1     0.0000000000e+00
 1  2  2     0.0000000000e+00
 1  2  3     0.0000000000e+00
 1  3  1    -1.2186938707e-02
 1  3  2     0.0000000000e+00
 1  3  3     0.0000000000e+00
 2  1  1     0.0000000000e+00
 2  1  2     0.0000000000e+00
 2  1  3     0.0000000000e+00
 2  2  1     0.0000000000e+00
 2  2  2     0.0000000000e+00
 2  2  3    -7.6645330448e-03
 2  3  1     0.0000000000e+00
 2  3  2    -1.2186938707e-02
 2  3  3     0.0000000000e+00
 3  1  1    -1.2186938707e-02
 3  1  2     0.0000000000e+00
 3  1  3     0.0000000000e+00
 3  2  1     0.0000000000e+00
 3  2  2    -1.2186938707e-02
 3  2  3     0.0000000000e+00
 3  3  1     0.0000000000e+00
 3  3  2     0.0000000000e+00
 3  3  3    -2.2497153540e-02

   32
0.0000000000e+00 0.0000000000e+00 0.0000000000e+00
0.0000000000e+00 0.0000000000e+00 -5.6957641260e+00
     1      1      2
 1  1  1     1.9793807229e-03
 1  1  2     1.8995979840e-02
 1  1  3    -1.8995979840e-02
 1  2  1     1.5918497805e-02
 1  2  2    -1.5918497805e-02
 1  2  3     2.8837541336e-02
 1  3  1    -1.5918497805e-02
 1  3  2     2.8837541336e-02
 1  3  3    -1.5918497805e-02
 2  1  1     1.5918497805e-02
 2  1  2    -1.5918497805e-02
 2  1  3     2.8837541336e-02
 2  2  1    -1.8995979840e-02
 2  2  2    -1.9793807229e-03
 2  2  3    -1.8995979840e-02
 2  3  1     2.8837541336e-02
 2  3  2    -1.5918497805e-02
 2  3  3     1.5918497805e-02
 3  1  1    -1.5918497805e-02
 3  1  2     2.8837541336e-02
 3  1  3    -1.5918497805e-02
 3  2  1     2.8837541336e-02