 2918

    1
0.0000000000e+00 0.0000000000e+00 0.0000000000e+00
0.0000000000e+00 0.0000000000e+00 0.0000000000e+00
     1      1      1
 1  1  1     0.0000000000e+00
 1  1  2     0.0000000000e+00
 1  1  3     0.0000000000e+00
 1  2  1     0.0000000000e+00
 1  2  2     0.0000000000e+00
 1  2  3     0.0000000000e+00
 1  3  1     0.0000000000e+00
 1  3  2     0.0000000000e+00
 1  3  3     0.0000000000e+00
 2  1  1     0.0000000000e+00
 2  1  2     0.0000000000e+00
 2  1  3     0.0000000000e+00
 2  2  1     0.0000000000e+00
 2  2  2     0.0000000000e+00
 2  2  3     0.0000000000e+00
 2  3  1     0.0000000000e+00
 2  3  2     0.0000000000e+00
 2  3  3     0.0000000000e+00
 3  1  1     0.0000000000e+00
 3  1  2     0.0000000000e+00
 3  1  3     0.0000000000e+00
 3  2  1     0.0000000000e+00
 3  2  2     0.0000000000e+00
 3  2  3     0.0000000000e+00
 3  3  1     0.0000000000e+00
 3  3  2     0.0000000000e+00
 3  3  3     0.0000000000e+00

    2
0.0000000000e+00 0.0000000000e+00 0.0000000000e+00
0.0000000000e+00 0.0000000000e+00 0.0000000000e+00
     1      1      2
 1  1  1     1.4079286447e-02
 1  1  2     1.7991147554e-02
 1  1  3     1.7991147554e-02
 1  2  1     9.8685617771e-03
 1  2  2    -9.8685617771e-03
 1  2  3    -1.7757957452e-02
 1  3  1     9.8685617771e-03
 1  3  2    -1.7757957452e-02
 1  3  3    -9.8685617771e-03
 2  1  1     9.8685617771e-03
 2  1  2    -9.8685617771e-03
 2  1  3    -1.7757957452e-02
 2  2  1    -1.7991147554e-02
 2  2  2    -1.4079286447e-02
 2  2  3     1.7991147554e-02
 2  3  1    -1.7757957452e-02
 2  3  2     9.8685617771e-03
 2  3  3     9.8685617771e-03
 3  1  1     9.8685617771e-03
 3  1  2    -1.7757957452e-02
 3  1  3    -9.8685617771e-03
 3  2  1    -1.7757957452e-02
 3  2  2     9.8685617771e-03
 3  2  3     9.8685617771e-03
 3  3  1    -1.7991147554e-02
 3  3  2     1.7991147554e-02
 3  3  3    -1.4079286447e-02

    3
0.0000000000e+00 0.0000000000e+00 0.0000000000e+00
-3.1892857947e+00 0.0000000000e+00 3.1892857947e+00
     1      1      1
 1  1  1     7.0705339696e-03
 1  1  2     0.0000000000e+00
 1  1  3    -9.6780615666e-02
 1  2  1     0.0000000000e+00
 1  2  2    -3.8904051126e-02
 1  2  3     0.0000000000e+00
 1  3  1    -8.8456741125e-02
 1  3  2     0.0000000000e+00
 1  3  3     8.8456741125e-02
 2  1  1     0.0000000000e+00
 2  1  2    -3.8904051126e-02
 2  1  3     0.0000000000e+00
 2  2  1    -3.9935382746e-02
 2  2  2     0.0000000000e+00
 2  2  3     3.9935382746e-02
 2  3  1     0.0000000000e+00
 2  3  2     3.8904051126e-02
 2  3  3     0.0000000000e+00
 3  1  1    -8.8456741125e-02
 3  1  2     0.0000000000e+00
 3  1  3     8.8456741125e-02
 3  2  1     0.0000000000e+00
 3  2  2     3.8904051126e-02
 3  2  3     0.0000000000e+00
 3  3  1     9.6780615666e-02
 3  3  2     0.0000000000e+00
 3  3  3    -7.0705339696e-03

    4
0.0000000000e+00 0.0000000000e+00 0.0000000000e+00
6.3785715893e+00 0.0000000000e+00 -6.3785715893e+00
     1      1      2
 1  1  1    -1.4079286447e-02
 1  1  2     1.7991147554e-02
 1  1  3    -1.7991147554e-02
 1  2  1     9.8685617771e-03
 1  2  2     9.8685617771e-03
 1  2  3    -1.7757957452e-02
 1  3  1    -9.8685617771e-03
 1  3  2    -1.7757957452e-02
 1  3  3     9.8685617771e-03
 2  1  1     9.8685617771e-03
 2  1  2     9.8685617771e-03
 2  1  3    -1.7757957452e-02
 2  2  1     1.7991147554e-02
 2  2  2    -1.4079286447e-02
 2  2  3    -1.7991147554e-02
 2  3  1    -1.7757957452e-02
 2  3  2    -9.8685617771e-03
 2  3  3     9.8685617771e-03
 3  1  1    -9.8685617771e-03
 3  1  2    -1.7757957452e-02
 3  1  3     9.8685617771e-03
 3  2  1    -1.7757957452e-02
 3  2  2    -9.8685617771e-03
 3  2  3     9.8685617771e-03
 3  3  1     1.7991147554e-02
 3  3  2     1.7991147554e-02
 3  3  3     1.4079286447e-02

    5
0.0000000000e+00 0.0000000000e+00 0.0000000000e+00
3.1892857947e+00 0.0000000000e+00 -3.1892857947e+00
     1      1      1
 1  1  1    -7.0705339696e-03
 1  1  2     0.0000000000e+00
 1  1  3     9.6780615666e-02
 1  2  1     0.0000000000e+00
 1  2  2     3.8904051126e-02
 1  2  3     0.0000000000e+00
 1  3  1     8.8456741125e-02
 1  3  2     0.0000000000e+00
 1  3  3    -8.8456741125e-02
 2  1  1     0.0000000000e+00
 2  1  2     3.8904051126e-02
 2  1  3     0.0000000000e+00
 2  2  1     3.9935382746e-02
 2  2  2     0.0000000000e+00
 2  2  3    -3.9935382746e-02
 2  3  1     0.0000000000e+00
 2  3  2    -3.8904051126e-02
 2  3  3     0.0000000000e+00
 3  1  1     8.8456741125e-02
 3  1  2     0.0000000000e+00
 3  1  3    -8.8456741125e-02
 3  2  1     0.0000000000e+00
 3  2  2    -3.8904051126e-02
 3  2  3     0.0000000000e+00
 3  3  1    -9.6780615666e-02
 3  3  2     0.0000000000e+00
 3  3  3     7.0705339696e-03

    6
0.0000000000e+00 0.0000000000e+00 0.0000000000e+00
3.1892857947e+00 0.0000000000e+00 -3.1892857947e+00
     1      1      2
 1  1  1     0.0000000000e+00
 1  1  2     1.4970811294e-01
 1  1  3     0.0000000000e+00
 1  2  1     8.5441908080e-02
 1  2  2     0.0000000000e+00
 1  2  3     0.0000000000e+00
 1  3  1     0.0000000000e+00
 1  3  2     0.0000000000e+00
 1  3  3     0.0000000000e+00
 2  1  1     8.5441908080e-02
 2  1  2     0.0000000000e+00
 2  1  3     0.0000000000e+00
 2  2  1     0.0000000000e+00
 2  2  2    -3.0596713592e+00
 2  2  3     0.0000000000e+00
 2  3  1     0.0000000000e+00
 2  3  2     0.0000000000e+00
 2  3  3     8.5441908080e-02
 3  1  1     0.0000000000e+00
 3  1  2     0.0000000000e+00
 3  1  3     0.0000000000e+00
 3  2  1     0.0000000000e+00
 3  2  2     0.0000000000e+00
 3  2  3     8.5441908080e-02
 3  3  1     0.0000000000e+00
 3  3  2     1.4970811294e-01
 3  3  3     0.0000000000e+00

    7
0.0000000000e+00 0.0000000000e+00 0.0000000000e+00
0.0000000000e+00 3.1892857947e+00 3.1892857947e+00
     1      1      1
 1  1  1     0.0000000000e+00
 1  1  2     3.9935382746e-02
 1  1  3     3.9935382746e-02
 1  2  1     3.8904051126e-02
 1  2  2     0.0000000000e+00
 1  2  3     0.0000000000e+00
 1  3  1     3.8904051126e-02
 1  3  2     0.0000000000e+00
 1  3  3     0.0000000000e+00
 2  1  1     3.8904051126e-02
 2  1  2     0.0000000000e+00
 2  1  3     0.0000000000e+00
 2  2  1     0.0000000000e+00
 2  2  2    -7.0705339696e-03
 2  2  3    -9.6780615666e-02
 2  3  1     0.0000000000e+00
 2  3  2    -8.8456741125e-02
 2  3  3    -8.8456741125e-02
 3  1  1     3.8904051126e-02
 3  1  2     0.0000000000e+00
 3  1  3     0.0000000000e+00
 3  2  1     0.0000000000e+00
 3  2  2    -8.8456741125e-02
 3  2  3    -8.8456741125e-02
 3  3  1     0.0000000000e+00
 3  3  2    -9.6780615666e-02
 3  3  3    -7.0705339696e-03

    8
0.0000000000e+00 0.0000000000e+00 0.0000000000e+00
6.3785715893e+00 3.1892857947e+00 -3.1892857947e+00
     1      1      2
 1  1  1    -9.6203910509e-03
 1  1  2     2.8379766387e-03
 1  1  3     0.0000000000e+00
 1  2  1    -1.7512033865e-03
 1  2  2     6.8953280671e-03
 1  2  3     0.0000000000e+00
 1  3  1     0.0000000000e+00
 1  3  2     0.0000000000e+00
 1  3  3    -1.5760416469e-03
 2  1  1    -1.7512033865e-03
 2  1  2     6.8953280671e-03
 2  1  3     0.0000000000e+00
 2  2  1     1.0186882546e-02
 2  2  2     1.2764527676e-02
 2  2  3     0.0000000000e+00
 2  3  1     0.0000000000e+00
 2  3  2     0.0000000000e+00
 2  3  3    -4.8241409496e-03
 3  1  1     0.0000000000e+00
 3  1  2     0.0000000000e+00
 3  1  3    -1.5760416469e-03
 3  2  1     0.0000000000e+00
 3  2  2     0.0000000000e+00
 3  2  3    -4.8241409496e-03
 3  3  1    -5.5580031174e-03
 3  3  2    -5.4301266229e-03
 3  3  3     0.0000000000e+00

    9
0.0000000000e+00 0.0000000000e+00 0.0000000000e+00
3.1892857947e+00 3.1892857947e+00 0.0000000000e+00
     1      1      1
 1  1  1    -7.0705339696e-03
 1  1  2    -9.6780615666e-02
 1  1  3     0.0000000000e+00
 1  2  1    -8.8456741125e-02
 1  2  2    -8.8456741125e-02
 1  2  3     0.0000000000e+00
 1  3  1     0.0000000000e+00
 1  3  2     0.0000000000e+00
 1  3  3     3.8904051126e-02
 2  1  1    -8.8456741125e-02
 2  1  2    -8.8456741125e-02
 2  1  3     0.0000000000e+00
 2  2  1    -9.6780615666e-02
 2  2  2    -7.0705339696e-03
 2  2  3     0.0000000000e+00
 2  3  1     0.0000000000e+00
 2  3  2     0.0000000000e+00
 2  3  3     3.8904051126e-02
 3  1  1     0.0000000000e+00
 3  1  2     0.0000000000e+00
 3  1  3     3.8904051126e-02
 3  2  1     0.0000000000e+00
 3  2  2     0.0000000000e+00
 3  2  3     3.8904051126e-02
 3  3  1     3.9935382746e-02
 3  3  2     3.9935382746e-02
 3  3  3     0.0000000000e+00

   10
0.0000000000e+00 0.0000000000e+00 0.0000000000e+00
3.1892857947e+00 3.1892857947e+00 0.0000000000e+00
     1      1      2
 1  1  1     0.0000000000e+00
 1  1  2    -5.4301266229e-03
 1  1  3    -5.5580031174e-03
 1  2  1    -4.8241409496e-03
 1  2  2     0.0000000000e+00
 1  2  3     0.0000000000e+00
 1  3  1    -1.5760416469e-03
 1  3  2     0.0000000000e+00
 1  3  3     0.0000000000e+00
 2  1  1    -4.8241409496e-03
 2  1  2     0.0000000000e+00
 2  1  3     0.0000000000e+00
 2  2  1     0.0000000000e+00
 2  2  2     1.2764527676e-02
 2  2  3     1.0186882546e-02
 2  3  1     0.0000000000e+00
 2  3  2     6.8953280671e-03
 2  3  3    -1.7512033865e-03
 3  1  1    -1.5760416469e-03
 3  1  2     0.0000000000e+00
 3  1  3     0.0000000000e+00
 3  2  1     0.0000000000e+00
 3  2  2     6.8953280671e-03
 3  2  3    -1.7512033865e-03
 3  3  1     0.0000000000e+00
 3  3  2     2.8379766387e-03
 3  3  3    -9.6203910509e-03

   11
0.0000000000e+00 0.0000000000e+00 0.0000000000e+00
0.0000000000e+00 -6.3785715893e+00 -6.3785715893e+00
     1      1      2
 1  1  1     1.4079286447e-02
 1  1  2    -1.7991147554e-02
 1  1  3    -1.7991147554e-02
 1  2  1    -9.8685617771e-03
 1  2  2    -9.8685617771e-03
 1  2  3    -1.7757957452e-02
 1  3  1    -9.8685617771e-03
 1  3  2    -1.7757957452e-02
 1  3  3    -9.8685617771e-03
 2  1  1    -9.8685617771e-03
 2  1  2    -9.8685617771e-03
 2  1  3    -1.7757957452e-02
 2  2  1    -1.7991147554e-02
 2  2  2     1.4079286447e-02
 2  2  3    -1.7991147554e-02
 2  3  1    -1.7757957452e-02
 2  3  2    -9.8685617771e-03
 2  3  3    -9.8685617771e-03
 3  1  1    -9.8685617771e-03
 3  1  2    -1.7757957452e-02
 3  1  3    -9.8685617771e-03
 3  2  1    -1.7757957452e-02
 3  2  2    -9.8685617771e-03
 3  2  3    -9.8685617771e-03
 3  3  1    -1.7991147554e-02
 3  3  2    -1.7991147554e-02
 3  3  3     1.4079286447e-02

   12
0.0000000000e+00 0.0000000000e+00 0.0000000000e+00
-3.1892857947e+00 -6.3785715893e+00 -3.1892857947e+00
     1      1      2
 1  1  1    -1.2764527676e-02
 1  1  2    -1.0186882546e-02
 1  1  3     0.0000000000e+00
 1  2  1    -6.8953280671e-03
 1  2  2     1.7512033865e-03
 1  2  3     0.0000000000e+00
 1  3  1     0.0000000000e+00
 1  3  2     0.0000000000e+00
 1  3  3     4.8241409496e-03
 2  1  1    -6.8953280671e-03
 2  1  2     1.7512033865e-03
 2  1  3     0.0000000000e+00
 2  2  1    -2.8379766387e-03
 2  2  2     9.6203910509e-03
 2  2  3     0.0000000000e+00
 2  3  1     0.0000000000e+00
 2  3  2     0.0000000000e+00
 2  3  3     1.5760416469e-03
 3  1  1     0.0000000000e+00
 3  1  2     0.0000000000e+00
 3  1  3     4.8241409496e-03
 3  2  1     0.0000000000e+00
 3  2  2     0.0000000000e+00
 3  2  3     1.5760416469e-03
 3  3  1     5.4301266229e-03
 3  3  2     5.5580031174e-03
 3  3  3     0.0000000000e+00

   13
0.0000000000e+00 0.0000000000e+00 0.0000000000e+00
3.1892857947e+00 -6.3785715893e+00 -9.5678573840e+00
     1      1      2
 1  1  1     0.0000000000e+00
 1  1  2     5.5580031174e-03
 1  1  3     5.4301266229e-03
 1  2  1     1.5760416469e-03
 1  2  2     0.0000000000e+00
 1  2  3     0.0000000000e+00
 1  3  1     4.8241409496e-03
 1  3  2     0.0000000000e+00
 1  3  3     0.0000000000e+00
 2  1  1     1.5760416469e-03
 2  1  2     0.0000000000e+00
 2  1  3     0.0000000000e+00
 2  2  1     0.0000000000e+00
 2  2  2     9.6203910509e-03
 2  2  3    -2.8379766387e-03
 2  3  1     0.0000000000e+00
 2  3  2     1.7512033865e-03
 2  3  3    -6.8953280671e-03
 3  1  1     4.8241409496e-03
 3  1  2     0.0000000000e+00
 3  1  3     0.0000000000e+00
 3  2  1     0.0000000000e+00
 3  2  2     1.7512033865e-03
 3  2  3    -6.8953280671e-03
 3  3  1     0.0000000000e+00
 3  3  2    -1.0186882546e-02
 3  3  3    -1.2764527676e-02

   14
0.0000000000e+00 0.0000000000e+00 0.0000000000e+00
0.0000000000e+00 -3.1892857947e+00 -3.1892857947e+00
     1      1      1
 1  1  1     0.0000000000e+00
 1  1  2    -3.9935382746e-02
 1  1  3    -3.9935382746e-02
 1  2  1    -3.8904051126e-02
 1  2  2     0.0000000000e+00
 1  2  3     0.0000000000e+00
 1  3  1    -3.8904051126e-02
 1  3  2     0.0000000000e+00
 1  3  3     0.0000000000e+00
 2  1  1    -3.8904051126e-02
 2  1  2     0.0000000000e+00
 2  1  3     0.0000000000e+00
 2  2  1     0.0000000000e+00
 2  2  2     7.0705339696e-03
 2  2  3     9.6780615666e-02
 2  3  1     0.0000000000e+00
 2  3  2     8.8456741125e-02
 2  3  3     8.8456741125e-02
 3  1  1    -3.8904051126e-02
 3  1  2     0.0000000000e+00
 3  1  3     0.0000000000e+00
 3  2  1     0.0000000000e+00
 3  2  2     8.8456741125e-02
 3  2  3     8.8456741125e-02
 3  3  1     0.0000000000e+00
 3  3  2     9.6780615666e-02
 3  3  3     7.0705339696e-03

   15
0.0000000000e+00 0.0000000000e+00 0.0000000000e+00
0.0000000000e+00 -3.1892857947e+00 -3.1892857947e+00
     1      1      2
 1  1  1     3.0596713592e+00
 1  1  2     0.0000000000e+00
 1  1  3     0.0000000000e+00
 1  2  1     0.0000000000e+00
 1  2  2    -8.5441908080e-02
 1  2  3     0.0000000000e+00
 1  3  1     0.0000000000e+00
 1  3  2     0.0000000000e+00
 1  3  3    -8.5441908080e-02
 2  1  1     0.0000000000e+00
 2  1  2    -8.5441908080e-02
 2  1  3     0.0000000000e+00
 2  2  1    -1.4970811294e-01
 2  2  2     0.0000000000e+00
 2  2  3     0.0000000000e+00
 2  3  1     0.0000000000e+00
 2  3  2     0.0000000000e+00
 2  3  3     0.0000000000e+00
 3  1  1     0.0000000000e+00
 3  1  2     0.0000000000e+00
 3  1  3    -8.5441908080e-02
 3  2  1     0.0000000000e+00
 3  2  2     0.0000000000e+00
 3  2  3     0.0000000000e+00
 3  3  1    -1.4970811294e-01
 3  3  2     0.0000000000e+00
 3  3  3     0.0000000000e+00

   16
0.0000000000e+00 0.0000000000e+00 0.0000000000e+00
-3.1892857947e+00 -3.1892857947e+00 0.0000000000e+00
     1      1      1
 1  1  1     7.0705339696e-03
 1  1  2     9.6780615666e-02
 1  1  3     0.0000000000e+00
 1  2  1     8.8456741125e-02
 1  2  2     8.8456741125e-02
 1  2  3     0.0000000000e+00
 1  3  1     0.0000000000e+00
 1  3  2     0.0000000000e+00
 1  3  3    -3.8904051126e-02
 2  1  1     8.8456741125e-02
 2  1  2     8.8456741125e-02
 2  1  3     0.0000000000e+00
 2  2  1     9.6780615666e-02
 2  2  2     7.0705339696e-03
 2  2  3     0.0000000000e+00
 2  3  1     0.0000000000e+00
 2  3  2     0.0000000000e+00
 2  3  3    -3.8904051126e-02
 3  1  1     0.0000000000e+00
 3  1  2     0.0000000000e+00
 3  1  3    -3.8904051126e-02
 3  2  1     0.0000000000e+00
 3  2  2     0.0000000000e+00
 3  2  3    -3.8904051126e-02
 3  3  1    -3.9935382746e-02
 3  3  2    -3.9935382746e-02
 3  3  3     0.0000000000e+00

   17
0.0000000000e+00 0.0000000000e+00 0.0000000000e+00
-3.1892857947e+00 -3.1892857947e+00 0.0000000000e+00
     1      1      2
 1  1  1    -1.2764527676e-02
 1  1  2     0.0000000000e+00
 1  1  3     1.0186882546e-02
 1  2  1     0.0000000000e+00
 1  2  2     4.8241409496e-03
 1  2  3     0.0000000000e+00
 1  3  1     6.8953280671e-03
 1  3  2     0.0000000000e+00
 1  3  3     1.7512033865e-03
 2  1  1     0.0000000000e+00
 2  1  2     4.8241409496e-03
 2  1  3     0.0000000000e+00
 2  2  1     5.4301266229e-03
 2  2  2     0.0000000000e+00
 2  2  3    -5.5580031174e-03
 2  3  1     0.0000000000e+00
 2  3  2    -1.5760416469e-03
 2  3  3     0.0000000000e+00
 3  1  1     6.8953280671e-03
 3  1  2     0.0000000000e+00
 3  1  3     1.7512033865e-03
 3  2  1     0.0000000000e+00
 3  2  2    -1.5760416469e-03
 3  2  3     0.0000000000e+00
 3  3  1    -2.8379766387e-03
 3  3  2     0.0000000000e+00
 3  3  3    -9.6203910509e-03

   18
0.0000000000e+00 0.0000000000e+00 0.0000000000e+00
6.3785715893e+00 -3.1892857947e+00 -9.5678573840e+00
     1      1      2
 1  1  1    -9.6203910509e-03
 1  1  2     0.0000000000e+00
 1  1  3    -2.8379766387e-03
 1  2  1     0.0000000000e+00
 1  2  2    -1.5760416469e-03
 1  2  3     0.0000000000e+00
 1  3  1     1.7512033865e-03
 1  3  2     0.0000000000e+00
 1  3  3     6.8953280671e-03
 2  1  1     0.0000000000e+00
 2  1  2    -1.5760416469e-03
 2  1  3     0.0000000000e+00
 2  2  1    -5.5580031174e-03
 2  2  2     0.0000000000e+00
 2  2  3     5.4301266229e-03
 2  3  1     0.0000000000e+00
 2  3  2     4.8241409496e-03
 2  3  3     0.0000000000e+00
 3  1  1     1.7512033865e-03
 3  1  2     0.0000000000e+00
 3  1  3     6.8953280671e-03
 3  2  1     0.0000000000e+00
 3  2  2     4.8241409496e-03
 3  2  3     0.0000000000e+00
 3  3  1     1.0186882546e-02
 3  3  2     0.0000000000e+00
 3  3  3    -1.2764527676e-02

   19
0.0000000000e+00 0.0000000000e+00 0.0000000000e+00
3.1892857947e+00 -3.1892857947e+00 -6.3785715893e+00
     1      1      2
 1  1  1     0.0000000000e+00
 1  1  2     0.0000000000e+00
 1  1  3    -1.4970811294e-01
 1  2  1     0.0000000000e+00
 1  2  2     0.0000000000e+00
 1  2  3     0.0000000000e+00
 1  3  1    -8.5441908080e-02
 1  3  2     0.0000000000e+00
 1  3  3     0.0000000000e+00
 2  1  1     0.0000000000e+00
 2  1  2     0.0000000000e+00
 2  1  3     0.0000000000e+00
 2  2  1     0.0000000000e+00
 2  2  2     0.0000000000e+00
 2  2  3    -1.4970811294e-01
 2  3  1     0.0000000000e+00
 2  3  2    -8.5441908080e-02
 2  3  3     0.0000000000e+00
 3  1  1    -8.5441908080e-02
 3  1  2     0.0000000000e+00
 3  1  3     0.0000000000e+00
 3  2  1     0.0000000000e+00
 3  2  2    -8.5441908080e-02
 3  2  3     0.0000000000e+00
 3  3  1     0.0000000000e+00
 3  3  2     0.0000000000e+00
 3  3  3     3.0596713592e+00

   20
0.0000000000e+00 0.0000000000e+00 0.0000000000e+00
-3.1892857947e+00 3.1892857947e+00 0.0000000000e+00
     1      1      1
 1  1  1     7.0705339696e-03
 1  1  2    -9.6780615666e-02
 1  1  3     0.0000000000e+00
 1  2  1    -8.8456741125e-02
 1  2  2     8.8456741125e-02
 1  2  3     0.0000000000e+00
 1  3  1     0.0000000000e+00
 1  3  2     0.0000000000e+00
 1  3  3    -3.8904051126e-02
 2  1  1    -8.8456741125e-02
 2  1  2     8.8456741125e-02
 2  1  3     0.0000000000e+00
 2  2  1     9.6780615666e-02
 2  2  2    -7.0705339696e-03
 2  2  3     0.0000000000e+00
 2  3  1     0.0000000000e+00
 2  3  2     0.0000000000e+00
 2  3  3     3.8904051126e-02
 3  1  1     0.0000000000e+00
 3  1  2     0.0000000000e+00
 3  1  3    -3.8904051126e-02
 3  2  1     0.0000000000e+00
 3  2  2     0.0000000000e+00
 3  2  3     3.8904051126e-02
 3  3  1    -3.9935382746e-02
 3  3  2     3.9935382746e-02
 3  3  3     0.0000000000e+00

   21
0.0000000000e+00 0.0000000000e+00 0.0000000000e+00
3.1892857947e+00 3.1892857947e+00 -6.3785715893e+00
     1      1      2
 1  1  1     0.0000000000e+00
 1  1  2    -5.4301266229e-03
 1  1  3     5.5580031174e-03
 1  2  1    -4.8241409496e-03
 1  2  2     0.0000000000e+00
 1  2  3     0.0000000000e+00
 1  3  1     1.5760416469e-03
 1  3  2     0.0000000000e+00
 1  3  3     0.0000000000e+00
 2  1  1    -4.8241409496e-03
 2  1  2     0.0000000000e+00
 2  1  3     0.0000000000e+00
 2  2  1     0.0000000000e+00
 2  2  2     1.2764527676e-02
 2  2  3    -1.0186882546e-02
 2  3  1     0.0000000000e+00
 2  3  2    -6.8953280671e-03
 2  3  3    -1.7512033865e-03
 3  1  1     1.5760416469e-03
 3  1  2     0.0000000000e+00
 3  1  3     0.0000000000e+00
 3  2  1     0.0000000000e+00
 3  2  2    -6.8953280671e-03
 3  2  3    -1.7512033865e-03
 3  3  1     0.0000000000e+00
 3  3  2     2.8379766387e-03
 3  3  3     9.6203910509e-03

   22
0.0000000000e+00 0.0000000000e+00 0.0000000000e+00
0.0000000000e+00 3.1892857947e+00 -3.1892857947e+00
     1      1      1
 1  1  1     0.0000000000e+00
 1  1  2     3.9935382746e-02
 1  1  3    -3.9935382746e-02
 1  2  1     3.8904051126e-02
 1  2  2     0.0000000000e+00
 1  2  3     0.0000000000e+00
 1  3  1    -3.8904051126e-02
 1  3  2     0.0000000000e+00
 1  3  3     0.0000000000e+00
 2  1  1     3.8904051126e-02
 2  1  2     0.0000000000e+00
 2  1  3     0.0000000000e+00
 2  2  1     0.0000000000e+00
 2  2  2    -7.0705339696e-03
 2  2  3     9.6780615666e-02
 2  3  1     0.0000000000e+00
 2  3  2     8.8456741125e-02
 2  3  3    -8.8456741125e-02
 3  1  1    -3.8904051126e-02
 3  1  2     0.0000000000e+00
 3  1  3     0.0000000000e+00
 3  2  1     0.0000000000e+00
 3  2  2     8.8456741125e-02
 3  2  3    -8.8456741125e-02
 3  3  1     0.0000000000e+00
 3  3  2    -9.6780615666e-02
 3  3  3     7.0705339696e-03

   23
0.0000000000e+00 0.0000000000e+00 0.0000000000e+00
0.0000000000e+00 3.1892857947e+00 -3.1892857947e+00
     1      1      2
 1  1  1     9.6203910509e-03
 1  1  2     2.8379766387e-03
 1  1  3     0.0000000000e+00
 1  2  1    -1.7512033865e-03
 1  2  2    -6.8953280671e-03
 1  2  3     0.0000000000e+00
 1  3  1     0.0000000000e+00
 1  3  2     0.0000000000e+00
 1  3  3     1.5760416469e-03
 2  1  1    -1.7512033865e-03
 2  1  2    -6.8953280671e-03
 2  1  3     0.0000000000e+00
 2  2  1    -1.0186882546e-02
 2  2  2     1.2764527676e-02
 2  2  3     0.0000000000e+00
 2  3  1     0.0000000000e+00
 2  3  2     0.0000000000e+00
 2  3  3    -4.8241409496e-03
 3  1  1     0.0000000000e+00
 3  1  2     0.0000000000e+00
 3  1  3     1.5760416469e-03
 3  2  1     0.0000000000e+00
 3  2  2     0.0000000000e+00
 3  2  3    -4.8241409496e-03
 3  3  1     5.5580031174e-03
 3  3  2    -5.4301266229e-03
 3  3  3     0.0000000000e+00

   24
0.0000000000e+00 0.0000000000e+00 0.0000000000e+00
0.0000000000e+00 6.3785715893e+00 0.0000000000e+00
     1      1      1
 1  1  1     0.0000000000e+00
 1  1  2     3.2103150017e-02
 1  1  3     0.0000000000e+00
 1  2  1     4.9233142798e-03
 1  2  2     0.0000000000e+00
 1  2  3     0.0000000000e+00
 1  3  1     0.0000000000e+00
 1  3  2     0.0000000000e+00
 1  3  3     0.0000000000e+00
 2  1  1     4.9233142798e-03
 2  1  2     0.0000000000e+00
 2  1  3     0.0000000000e+00
 2  2  1     0.0000000000e+00
 2  2  2    -3.3424342402e-02
 2  2  3     0.0000000000e+00
 2  3  1     0.0000000000e+00
 2  3  2     0.0000000000e+00
 2  3  3     4.9233142798e-03
 3  1  1     0.0000000000e+00
 3  1  2     0.0000000000e+00
 3  1  3     0.0000000000e+00
 3  2  1     0.0000000000e+00
 3  2  2     0.0000000000e+00
 3  2  3     4.9233142798e-03
 3  3  1     0.0000000000e+00
 3  3  2     3.2103150017e-02
 3  3  3     0.0000000000e+00

   25
0.0000000000e+00 0.0000000000e+00 0.0000000000e+00
-3.1892857947e+00 -3.1892857947e+00 -6.3785715893e+00
     1      1      2
 1  1  1    -1.2764527676e-02
 1  1  2     0.0000000000e+00
 1  1  3    -1.0186882546e-02
 1  2  1     0.0000000000e+00
 1  2  2     4.8241409496e-03
 1  2  3     0.0000000000e+00
 1  3  1    -6.8953280671e-03
 1  3  2     0.0000000000e+00
 1  3  3     1.7512033865e-03
 2  1  1     0.0000000000e+00
 2  1  2     4.8241409496e-03
 2  1  3     0.0000000000e+00
 2  2  1     5.4301266229e-03
 2  2  2     0.0000000000e+00
 2  2  3     5.5580031174e-03
 2  3  1     0.0000000000e+00
 2  3  2     1.5760416469e-03
 2  3  3     0.0000000000e+00
 3  1  1    -6.8953280671e-03
 3  1  2     0.0000000000e+00
 3  1  3     1.7512033865e-03
 3  2  1     0.0000000000e+00
 3  2  2     1.5760416469e-03
 3  2  3     0.0000000000e+00
 3  3  1    -2.8379766387e-03
 3  3  2     0.0000000000e+00
 3  3  3     9.6203910509e-03

   26
0.0000000000e+00 0.0000000000e+00 0.0000000000e+00
0.0000000000e+00 -3.1892857947e+00 -9.5678573840e+00
     1      1      2
 1  1  1     9.6203910509e-03
 1  1  2     0.0000000000e+00
 1  1  3    -2.8379766387e-03
 1  2  1     0.0000000000e+00
 1  2  2     1.5760416469e-03
 1  2  3     0.0000000000e+00
 1  3  1     1.7512033865e-03
 1  3  2     0.0000000000e+00
 1  3  3    -6.8953280671e-03
 2  1  1     0.0000000000e+00
 2  1  2     1.5760416469e-03
 2  1  3     0.0000000000e+00
 2  2  1     5.5580031174e-03
 2  2  2     0.0000000000e+00
 2  2  3     5.4301266229e-03
 2  3  1     0.0000000000e+00
 2  3  2     4.8241409496e-03
 2  3  3     0.0000000000e+00
 3  1  1     1.7512033865e-03
 3  1  2     0.0000000000e+00
 3  1  3    -6.8953280671e-03
 3  2  1     0.0000000000e+00
 3  2  2     4.8241409496e-03
 3  2  3     0.0000000000e+00
 3  3  1    -1.0186882546e-02
 3  3  2     0.0000000000e+00
 3  3  3    -1.2764527676e-02

   27
0.0000000000e+00 0.0000000000e+00 0.0000000000e+00
-3.1892857947e+00 0.0000000000e+00 -3.1892857947e+00
     1      1      1
 1  1  1     7.0705339696e-03
 1  1  2     0.0000000000e+00
 1  1  3     9.6780615666e-02
 1  2  1     0.0000000000e+00
 1  2  2    -3.8904051126e-02
 1  2  3     0.0000000000e+00
 1  3  1     8.8456741125e-02
 1  3  2     0.0000000000e+00
 1  3  3     8.8456741125e-02
 2  1  1     0.0000000000e+00
 2  1  2    -3.8904051126e-02
 2  1  3     0.0000000000e+00
 2  2  1    -3.9935382746e-02
 2  2  2     0.0000000000e+00
 2  2  3    -3.9935382746e-02
 2  3  1     0.0000000000e+00
 2  3  2    -3.8904051126e-02
 2  3  3     0.0000000000e+00
 3  1  1     8.8456741125e-02
 3  1  2     0.0000000000e+00
 3  1  3     8.8456741125e-02
 3  2  1     0.0000000000e+00
 3  2  2    -3.8904051126e-02
 3  2  3     0.0000000000e+00
 3  3  1     9.6780615666e-02
 3  3  2     0.0000000000e+00
 3  3  3     7.0705339696e-03

   28
0.0000000000e+00 0.0000000000e+00 0.0000000000e+00
-3.1892857947e+00 0.0000000000e+00 -3.1892857947e+00
     1      1      2
 1  1  1    -1.2764527676e-02
 1  1  2     1.0186882546e-02
 1  1  3     0.0000000000e+00
 1  2  1     6.8953280671e-03
 1  2  2     1.7512033865e-03
 1  2  3     0.0000000000e+00
 1  3  1     0.0000000000e+00
 1  3  2     0.0000000000e+00
 1  3  3     4.8241409496e-03
 2  1  1     6.8953280671e-03
 2  1  2     1.7512033865e-03
 2  1  3     0.0000000000e+00
 2  2  1    -2.8379766387e-03
 2  2  2    -9.6203910509e-03
 2  2  3     0.0000000000e+00
 2  3  1     0.0000000000e+00
 2  3  2     0.0000000000e+00
 2  3  3    -1.5760416469e-03
 3  1  1     0.0000000000e+00
 3  1  2     0.0000000000e+00
 3  1  3     4.8241409496e-03
 3  2  1     0.0000000000e+00
 3  2  2     0.0000000000e+00
 3  2  3    -1.5760416469e-03
 3  3  1     5.4301266229e-03
 3  3  2    -5.5580031174e-03
 3  3  3     0.0000000000e+00

   29
0.0000000000e+00 0.0000000000e+00 0.0000000000e+00
-6.3785715893e+00 0.0000000000e+00 0.0000000000e+00
     1      1      1
 1  1  1     3.3424342402e-02
 1  1  2     0.0000000000e+00
 1  1  3     0.0000000000e+00
 1  2  1     0.0000000000e+00
 1  2  2    -4.9233142798e-03
 1  2  3     0.0000000000e+00
 1  3  1     0.0000000000e+00
 1  3  2     0.0000000000e+00
 1  3  3    -4.9233142798e-03
 2  1  1     0.0000000000e+00
 2  1  2    -4.9233142798e-03
 2  1  3     0.0000000000e+00
 2  2  1    -3.2103150017e-02
 2  2  2     0.0000000000e+00
 2  2  3     0.0000000000e+00
 2  3  1     0.0000000000e+00
 2  3  2     0.0000000000e+00
 2  3  3     0.0000000000e+00
 3  1  1     0.0000000000e+00
 3  1  2     0.0000000000e+00
 3  1  3    -4.9233142798e-03
 3  2  1     0.0000000000e+00
 3  2  2     0.0000000000e+00
 3  2  3     0.0000000000e+00
 3  3  1    -3.2103150017e-02
 3  3  2     0.0000000000e+00
 3  3  3     0.0000000000e+00

   30
0.0000000000e+00 0.0000000000e+00 0.0000000000e+00
3.1892857947e+00 0.0000000000e+00 -9.5678573840e+00
     1      1      2
 1  1  1     0.0000000000e+00
 1  1  2    -5.5580031174e-03
 1  1  3     5.4301266229e-03
 1  2  1    -1.5760416469e-03
 1  2  2     0.0000000000e+00
 1  2  3     0.0000000000e+00
 1  3  1     4.8241409496e-03
 1  3  2     0.0000000000e+00
 1  3  3     0.0000000000e+00
 2  1  1    -1.5760416469e-03
 2  1  2     0.0000000000e+00
 2  1  3     0.0000000000e+00
 2  2  1     0.0000000000e+00
 2  2  2    -9.6203910509e-03
 2  2  3    -2.8379766387e-03
 2  3  1     0.0000000000e+00
 2  3  2     1.7512033865e-03
 2  3  3     6.8953280671e-03
 3  1  1     4.8241409496e-03
 3  1  2     0.0000000000e+00
 3  1  3     0.0000000000e+00
 3  2  1     0.0000000000e+00
 3  2  2     1.7512033865e-03
 3  2  3     6.8953280671e-03
 3  3  1     0.0000000000e+00
 3  3  2     1.0186882546e-02
 3  3  3    -1.2764527676e-02

   31
0.0000000000e+00 0.0000000000e+00 0.0000000000e+00
0.0000000000e+00 0.0000000000e+00 -6.3785715893e+00
     1      1      1
 1  1  1     0.0000000000e+00
 1  1  2     0.0000000000e+00
 1  1  3    -3.2103150017e-02
 1  2  1     0.0000000000e+00
 1  2  2     0.0000000000e+00
 1  2  3     0.0000000000e+00
 1  3  1    -4.9233142798e-03
 1  3  2     0.0000000000e+00
 1  3  3     0.0000000000e+00
 2  1  1     0.0000000000e+00
 2  1  2     0.0000000000e+00
 2  1  3     0.0000000000e+00
 2  2  1     0.0000000000e+00
 2  2  2     0.0000000000e+00
 2  2  3    -3.2103150017e-02
 2  3  1     0.0000000000e+00
 2  3  2    -4.9233142798e-03
 2  3  3     0.0000000000e+00
 3  1  1    -4.9233142798e-03
 3  1  2     0.0000000000e+00
 3  1  3     0.0000000000e+00
 3  2  1     0.0000000000e+00
 3  2  2    -4.9233142798e-03
 3  2  3     0.0000000000e+00
 3  3  1     0.0000000000e+00
 3  3  2     0.0000000000e+00
 3  3  3     3.3424342402e-02

   32
0.0000000000e+00 0.0000000000e+00 0.0000000000e+00
0.0000000000e+00 0.0000000000e+00 -6.3785715893e+00
     1      1      2
 1  1  1     1.4079286447e-02
 1  1  2     1.7991147554e-02
 1  1  3    -1.7991147554e-02
 1  2  1     9.8685617771e-03
 1  2  2    -9.8685617771e-03
 1  2  3     1.7757957452e-02
 1  3  1    -9.8685617771e-03
 1  3  2     1.7757957452e-02
 1  3  3    -9.8685617771e-03
 2  1  1     9.8685617771e-03
 2  1  2    -9.8685617771e-03
 2  1  3     1.7757957452e-02
 2  2  1    -1.7991147554e-02
 2  2  2    -1.4079286447e-02
 2  2  3    -1.7991147554e-02
 2  3  1     1.7757957452e-02
 2  3  2    -9.8685617771e-03
 2  3  3     9.8685617771e-03
 3  1  1    -9.8685617771e-03
 3  1  2     1.7757957452e-02
 3  1  3    -9.8685617771e-03
 3  2  1     1.7757957452e-02