 1989

    1
0.0000000000e+00 0.0000000000e+00 0.0000000000e+00
0.0000000000e+00 0.0000000000e+00 0.0000000000e+00
     1      1      1
 1  1  1     0.0000000000e+00
 1  1  2    -1.9538955488e+01
 1  1  3     0.0000000000e+00
 1  2  1    -1.9538955488e+01
 1  2  2     0.0000000000e+00
 1  2  3     0.0000000000e+00
 1  3  1     0.0000000000e+00
 1  3  2     0.0000000000e+00
 1  3  3     0.0000000000e+00
 2  1  1    -1.9538955488e+01
 2  1  2     0.0000000000e+00
 2  1  3     0.0000000000e+00
 2  2  1     0.0000000000e+00
 2  2  2     1.9538955496e+01
 2  2  3     0.0000000000e+00
 2  3  1     0.0000000000e+00
 2  3  2     0.0000000000e+00
 2  3  3     0.0000000000e+00
 3  1  1     0.0000000000e+00
 3  1  2     0.0000000000e+00
 3  1  3     0.0000000000e+00
 3  2  1     0.0000000000e+00
 3  2  2     0.0000000000e+00
 3  2  3     0.0000000000e+00
 3  3  1     0.0000000000e+00
 3  3  2     0.0000000000e+00
 3  3  3     0.0000000000e+00

    2
0.0000000000e+00 0.0000000000e+00 0.0000000000e+00
0.0000000000e+00 0.0000000000e+00 0.0000000000e+00
     1      1      2
 1  1  1    -9.7952949868e+00
 1  1  2     5.7297872176e+00
 1  1  3    -1.1579233366e+01
 1  2  1     4.2477370591e+00
 1  2  2    -2.4094362721e+00
 1  2  3     5.3291059804e+00
 1  3  1    -1.1679561609e+01
 1  3  2     6.9402408669e+00
 1  3  3    -1.0835660002e+01
 2  1  1     4.2477370591e+00
 2  1  2    -2.4094362721e+00
 2  1  3     5.3291059804e+00
 2  2  1    -4.9764224464e+00
 2  2  2     2.7986678205e+00
 2  2  3    -5.4257118244e+00
 2  3  1     6.9402408669e+00
 2  3  2    -3.6656617465e+00
 2  3  3     6.2559712205e+00
 3  1  1    -1.1679561609e+01
 3  1  2     6.9402408669e+00
 3  1  3    -1.0835660002e+01
 3  2  1     6.9402408669e+00
 3  2  2    -3.6656617465e+00
 3  2  3     6.2559712205e+00
 3  3  1    -1.1257248034e+01
 3  3  2     6.4993751839e+00
 3  3  3    -1.1084305884e+01

    3
0.0000000000e+00 0.0000000000e+00 0.0000000000e+00
0.0000000000e+00 0.0000000000e+00 0.0000000000e+00
     1      1      3
 1  1  1    -9.7952949868e+00
 1  1  2     5.7297872176e+00
 1  1  3     1.1579233366e+01
 1  2  1     4.2477370591e+00
 1  2  2    -2.4094362721e+00
 1  2  3    -5.3291059804e+00
 1  3  1     1.1679561609e+01
 1  3  2    -6.9402408669e+00
 1  3  3    -1.0835660002e+01
 2  1  1     4.2477370591e+00
 2  1  2    -2.4094362721e+00
 2  1  3    -5.3291059804e+00
 2  2  1    -4.9764224464e+00
 2  2  2     2.7986678205e+00
 2  2  3     5.4257118244e+00
 2  3  1    -6.9402408669e+00
 2  3  2     3.6656617465e+00
 2  3  3     6.2559712205e+00
 3  1  1     1.1679561609e+01
 3  1  2    -6.9402408669e+00
 3  1  3    -1.0835660002e+01
 3  2  1    -6.9402408669e+00
 3  2  2     3.6656617465e+00
 3  2  3     6.2559712205e+00
 3  3  1    -1.1257248034e+01
 3  3  2     6.4993751839e+00
 3  3  3     1.1084305884e+01

    4
0.0000000000e+00 0.0000000000e+00 0.0000000000e+00
3.1287237160e+00 0.0000000000e+00 0.0000000000e+00
     1      1      1
 1  1  1    -8.1818933545e+00
 1  1  2     2.9793453164e+00
 1  1  3     0.0000000000e+00
 1  2  1     3.4365767740e-01
 1  2  2    -2.3472169131e-01
 1  2  3     0.0000000000e+00
 1  3  1     0.0000000000e+00
 1  3  2     0.0000000000e+00
 1  3  3    -8.5842017071e-01
 2  1  1     3.4365767740e-01
 2  1  2    -2.3472169131e-01
 2  1  3     0.0000000000e+00
 2  2  1     7.2439994203e-01
 2  2  2     2.0461415149e-01
 2  2  3     0.0000000000e+00
 2  3  1     0.0000000000e+00
 2  3  2     0.0000000000e+00
 2  3  3    -1.3793372562e+00
 3  1  1     0.0000000000e+00
 3  1  2     0.0000000000e+00
 3  1  3    -8.5842017071e-01
 3  2  1     0.0000000000e+00
 3  2  2     0.0000000000e+00
 3  2  3    -1.3793372562e+00
 3  3  1    -1.7953314580e+00
 3  3  2    -1.1599468947e+00
 3  3  3     0.0000000000e+00

    5
0.0000000000e+00 0.0000000000e+00 0.0000000000e+00
3.1287237160e+00 0.0000000000e+00 0.0000000000e+00
     1      1      2
 1  1  1     9.6384077147e-03
 1  1  2    -1.2922770045e-01
 1  1  3     8.5616228230e-02
 1  2  1     2.5773890697e-02
 1  2  2     3.1249720010e-02
 1  2  3     5.4725648379e-02
 1  3  1    -1.0986167979e-01
 1  3  2     9.5481509457e-02
 1  3  3    -2.5613210498e-02
 2  1  1     2.5773890697e-02
 2  1  2     3.1249720010e-02
 2  1  3     5.4725648379e-02
 2  2  1     7.6083200886e-02
 2  2  2     3.6842119474e-02
 2  2  3     1.0012488401e-01
 2  3  1    -9.0962970385e-02
 2  3  2    -7.7927558258e-02
 2  3  3     1.9355424825e-01
 3  1  1    -1.0986167979e-01
 3  1  2     9.5481509457e-02
 3  1  3    -2.5613210498e-02
 3  2  1    -9.0962970385e-02
 3  2  2    -7.7927558258e-02
 3  2  3     1.9355424825e-01
 3  3  1     2.0743377085e-01
 3  3  2     7.3734769603e-02
 3  3  3    -1.7547163763e-01

    6
0.0000000000e+00 0.0000000000e+00 0.0000000000e+00
3.1287237160e+00 0.0000000000e+00 0.0000000000e+00
     1      1      3
 1  1  1     9.6384077147e-03
 1  1  2    -1.2922770045e-01
 1  1  3    -8.5616228230e-02
 1  2  1     2.5773890697e-02
 1  2  2     3.1249720010e-02
 1  2  3    -5.4725648379e-02
 1  3  1     1.0986167979e-01
 1  3  2    -9.5481509457e-02
 1  3  3    -2.5613210498e-02
 2  1  1     2.5773890697e-02
 2  1  2     3.1249720010e-02
 2  1  3    -5.4725648379e-02
 2  2  1     7.6083200886e-02
 2  2  2     3.6842119474e-02
 2  2  3    -1.0012488401e-01
 2  3  1     9.0962970385e-02
 2  3  2     7.7927558258e-02
 2  3  3     1.9355424825e-01
 3  1  1     1.0986167979e-01
 3  1  2    -9.5481509457e-02
 3  1  3    -2.5613210498e-02
 3  2  1     9.0962970385e-02
 3  2  2     7.7927558258e-02
 3  2  3     1.9355424825e-01
 3  3  1     2.0743377085e-01
 3  3  2     7.3734769603e-02
 3  3  3     1.7547163763e-01

    7
0.0000000000e+00 0.0000000000e+00 0.0000000000e+00
-6.2574474320e+00 0.0000000000e+00 0.0000000000e+00
     1      1      2
 1  1  1    -9.6384077147e-03
 1  1  2    -1.2922770045e-01
 1  1  3     8.5616228230e-02
 1  2  1     2.5773890697e-02
 1  2  2    -3.1249720010e-02
 1  2  3    -5.4725648379e-02
 1  3  1    -1.0986167979e-01
 1  3  2    -9.5481509457e-02
 1  3  3     2.5613210498e-02
 2  1  1     2.5773890697e-02
 2  1  2    -3.1249720010e-02
 2  1  3    -5.4725648379e-02
 2  2  1    -7.6083200886e-02
 2  2  2     3.6842119474e-02
 2  2  3     1.0012488401e-01
 2  3  1     9.0962970385e-02
 2  3  2    -7.7927558258e-02
 2  3  3     1.9355424825e-01
 3  1  1    -1.0986167979e-01
 3  1  2    -9.5481509457e-02
 3  1  3     2.5613210498e-02
 3  2  1     9.0962970385e-02
 3  2  2    -7.7927558258e-02
 3  2  3     1.9355424825e-01
 3  3  1    -2.0743377085e-01
 3  3  2     7.3734769603e-02
 3  3  3    -1.7547163763e-01

    8
0.0000000000e+00 0.0000000000e+00 0.0000000000e+00
-6.2574474320e+00 0.0000000000e+00 0.0000000000e+00
     1      1      3
 1  1  1    -9.6384077147e-03
 1  1  2    -1.2922770045e-01
 1  1  3    -8.5616228230e-02
 1  2  1     2.5773890697e-02
 1  2  2    -3.1249720010e-02
 1  2  3     5.4725648379e-02
 1  3  1     1.0986167979e-01
 1  3  2     9.5481509457e-02
 1  3  3     2.5613210498e-02
 2  1  1     2.5773890697e-02
 2  1  2    -3.1249720010e-02
 2  1  3     5.4725648379e-02
 2  2  1    -7.6083200886e-02
 2  2  2     3.6842119474e-02
 2  2  3    -1.0012488401e-01
 2  3  1    -9.0962970385e-02
 2  3  2     7.7927558258e-02
 2  3  3     1.9355424825e-01
 3  1  1     1.0986167979e-01
 3  1  2     9.5481509457e-02
 3  1  3     2.5613210498e-02
 3  2  1    -9.0962970385e-02
 3  2  2     7.7927558258e-02
 3  2  3     1.9355424825e-01
 3  3  1    -2.0743377085e-01
 3  3  2     7.3734769603e-02
 3  3  3     1.7547163763e-01

    9
0.0000000000e+00 0.0000000000e+00 0.0000000000e+00
-3.1287237160e+00 0.0000000000e+00 0.0000000000e+00
     1      1      1
 1  1  1     8.1818933545e+00
 1  1  2     2.9793453164e+00
 1  1  3     0.0000000000e+00
 1  2  1     3.4365767740e-01
 1  2  2     2.3472169131e-01
 1  2  3     0.0000000000e+00
 1  3  1     0.0000000000e+00
 1  3  2     0.0000000000e+00
 1  3  3     8.5842017071e-01
 2  1  1     3.4365767740e-01
 2  1  2     2.3472169131e-01
 2  1  3     0.0000000000e+00
 2  2  1    -7.2439994203e-01
 2  2  2     2.0461415149e-01
 2  2  3     0.0000000000e+00
 2  3  1     0.0000000000e+00
 2  3  2     0.0000000000e+00
 2  3  3    -1.3793372562e+00
 3  1  1     0.0000000000e+00
 3  1  2     0.0000000000e+00
 3  1  3     8.5842017071e-01
 3  2  1     0.0000000000e+00
 3  2  2     0.0000000000e+00
 3  2  3    -1.3793372562e+00
 3  3  1     1.7953314580e+00
 3  3  2    -1.1599468947e+00
 3  3  3     0.0000000000e+00

   10
0.0000000000e+00 0.0000000000e+00 0.0000000000e+00
-3.1287237160e+00 0.0000000000e+00 0.0000000000e+00
     1      1      2
 1  1  1     9.7952949868e+00
 1  1  2     5.7297872176e+00
 1  1  3    -1.1579233366e+01
 1  2  1     4.2477370591e+00
 1  2  2     2.4094362721e+00
 1  2  3    -5.3291059804e+00
 1  3  1    -1.1679561609e+01
 1  3  2    -6.9402408669e+00
 1  3  3     1.0835660002e+01
 2  1  1     4.2477370591e+00
 2  1  2     2.4094362721e+00
 2  1  3    -5.3291059804e+00
 2  2  1     4.9764224464e+00
 2  2  2     2.7986678205e+00
 2  2  3    -5.4257118244e+00
 2  3  1    -6.9402408669e+00
 2  3  2    -3.6656617465e+00
 2  3  3     6.2559712205e+00
 3  1  1    -1.1679561609e+01
 3  1  2    -6.9402408669e+00
 3  1  3     1.0835660002e+01
 3  2  1    -6.9402408669e+00
 3  2  2    -3.6656617465e+00
 3  2  3     6.2559712205e+00
 3  3  1     1.1257248034e+01
 3  3  2     6.4993751839e+00
 3  3  3    -1.1084305884e+01

   11
0.0000000000e+00 0.0000000000e+00 0.0000000000e+00
-3.1287237160e+00 0.0000000000e+00 0.0000000000e+00
     1      1      3
 1  1  1     9.7952949868e+00
 1  1  2     5.7297872176e+00
 1  1  3     1.1579233366e+01
 1  2  1     4.2477370591e+00
 1  2  2     2.4094362721e+00
 1  2  3     5.3291059804e+00
 1  3  1     1.1679561609e+01
 1  3  2     6.9402408669e+00
 1  3  3     1.0835660002e+01
 2  1  1     4.2477370591e+00
 2  1  2     2.4094362721e+00
 2  1  3     5.3291059804e+00
 2  2  1     4.9764224464e+00
 2  2  2     2.7986678205e+00
 2  2  3     5.4257118244e+00
 2  3  1     6.9402408669e+00
 2  3  2     3.6656617465e+00
 2  3  3     6.2559712205e+00
 3  1  1     1.1679561609e+01
 3  1  2     6.9402408669e+00
 3  1  3     1.0835660002e+01
 3  2  1     6.9402408669e+00
 3  2  2     3.6656617465e+00
 3  2  3     6.2559712205e+00
 3  3  1     1.1257248034e+01
 3  3  2     6.4993751839e+00
 3  3  3     1.1084305884e+01

   12
0.0000000000e+00 0.0000000000e+00 0.0000000000e+00
-1.5643618580e+00 2.7095542200e+00 0.0000000000e+00
     1      1      1
 1  1  1     3.7184784675e-04
 1  1  2    -1.3906880498e+00
 1  1  3     0.0000000000e+00
 1  2  1    -9.0346792990e-01
 1  2  2     3.7331183446e+00
 1  2  3     0.0000000000e+00
 1  3  1     0.0000000000e+00
 1  3  2     0.0000000000e+00
 1  3  3     1.6237511894e+00
 2  1  1    -9.0346792990e-01
 2  1  2     3.7331183446e+00
 2  1  3     0.0000000000e+00
 2  2  1     9.7098507567e-01
 2  2  2    -6.6596704319e+00
 2  2  3     0.0000000000e+00
 2  3  1     0.0000000000e+00
 2  3  2     0.0000000000e+00
 2  3  3    -5.3745046986e-02
 3  1  1     0.0000000000e+00
 3  1  2     0.0000000000e+00
 3  1  3     1.6237511894e+00
 3  2  1     0.0000000000e+00
 3  2  2     0.0000000000e+00
 3  2  3    -5.3745046986e-02
 3  3  1     1.9022092067e+00
 3  3  2    -9.7482920378e-01
 3  3  3     0.0000000000e+00

   13
0.0000000000e+00 0.0000000000e+00 0.0000000000e+00
-1.5643618580e+00 2.7095542200e+00 0.0000000000e+00
     1      1      2
 1  1  1     0.0000000000e+00
 1  1  2    -2.8896292979e+00
 1  1  3    -2.3489510506e+00
 1  2  1     7.4471019088e-02
 1  2  2     0.0000000000e+00
 1  2  3     0.0000000000e+00
 1  3  1     3.4128818687e-01
 1  3  2     0.0000000000e+00
 1  3  3     0.0000000000e+00
 2  1  1     7.4471019088e-02
 2  1  2     0.0000000000e+00
 2  1  3     0.0000000000e+00
 2  2  1     0.0000000000e+00
 2  2  2    -1.4167280782e+01
 2  2  3    -1.4655994143e+01
 2  3  1     0.0000000000e+00
 2  3  2    -1.5686511547e+01
 2  3  3    -1.2511942441e+01
 3  1  1     3.4128818687e-01
 3  1  2     0.0000000000e+00
 3  1  3     0.0000000000e+00
 3  2  1     0.0000000000e+00
 3  2  2    -1.5686511547e+01
 3  2  3    -1.2511942441e+01
 3  3  1     0.0000000000e+00
 3  3  2    -1.2998750368e+01
 3  3  3    -1.1084305884e+01

   14
0.0000000000e+00 0.0000000000e+00 0.0000000000e+00
-1.5643618580e+00 2.7095542200e+00 0.0000000000e+00
     1      1      3
 1  1  1     0.0000000000e+00
 1  1  2    -2.8896292979e+00
 1  1  3     2.3489510506e+00
 1  2  1     7.4471019088e-02
 1  2  2     0.0000000000e+00
 1  2  3     0.0000000000e+00
 1  3  1    -3.4128818687e-01
 1  3  2     0.0000000000e+00
 1  3  3     0.0000000000e+00
 2  1  1     7.4471019088e-02
 2  1  2     0.0000000000e+00
 2  1  3     0.0000000000e+00
 2  2  1     0.0000000000e+00
 2  2  2    -1.4167280782e+01
 2  2  3     1.4655994143e+01
 2  3  1     0.0000000000e+00
 2  3  2     1.5686511547e+01
 2  3  3    -1.2511942441e+01
 3  1  1    -3.4128818687e-01
 3  1  2     0.0000000000e+00
 3  1  3     0.0000000000e+00
 3  2  1     0.0000000000e+00
 3  2  2     1.5686511547e+01
 3  2  3    -1.2511942441e+01
 3  3  1     0.0000000000e+00
 3  3  2    -1.2998750368e+01
 3  3  3     1.1084305884e+01

   15
0.0000000000e+00 0.0000000000e+00 0.0000000000e+00
1.5643618580e+00 2.7095542200e+00 0.0000000000e+00
     1      1      1
 1  1  1    -3.7184784675e-04
 1  1  2    -1.3906880498e+00
 1  1  3     0.0000000000e+00
 1  2  1    -9.0346792990e-01
 1  2  2    -3.7331183446e+00
 1  2  3     0.0000000000e+00
 1  3  1     0.0000000000e+00
 1  3  2     0.0000000000e+00
 1  3  3    -1.6237511894e+00
 2  1  1    -9.0346792990e-01
 2  1  2    -3.7331183446e+00
 2  1  3     0.0000000000e+00
 2  2  1    -9.7098507567e-01
 2  2  2    -6.6596704319e+00
 2  2  3     0.0000000000e+00
 2  3  1     0.0000000000e+00
 2  3  2     0.0000000000e+00
 2  3  3    -5.3745046986e-02
 3  1  1     0.0000000000e+00
 3  1  2     0.0000000000e+00
 3  1  3    -1.6237511894e+00
 3  2  1     0.0000000000e+00
 3  2  2     0.0000000000e+00
 3  2  3    -5.3745046986e-02
 3  3  1    -1.9022092067e+00
 3  3  2    -9.7482920378e-01
 3  3  3     0.0000000000e+00

   16
0.0000000000e+00 0.0000000000e+00 0.0000000000e+00
1.5643618580e+00 2.7095542200e+00 0.0000000000e+00
     1      1      2
 1  1  1     2.3985181891e-01
 1  1  2    -3.2527611095e-01
 1  1  3    -2.6462763170e-01
 1  2  1    -2.4101275325e-01
 1  2  2     1.2860007859e-01
 1  2  3    -7.1092415151e-02
 1  3  1    -3.7536653479e-01
 1  3  2    -7.9788556081e-02
 1  3  3     4.4061901236e-02
 2  1  1    -2.4101275325e-01
 2  1  2     1.2860007859e-01
 2  1  3    -7.1092415151e-02
 2  2  1    -1.7348338176e-02
 2  2  2     4.5373855565e-01
 2  2  3    -1.8253718174e-01
 2  3  1    -7.9788556081e-02
 2  3  2    -2.8323464625e-01
 2  3  3     2.5439150544e-02
 3  1  1    -3.7536653479e-01
 3  1  2    -7.9788556081e-02
 3  1  3     4.4061901236e-02
 3  2  1    -7.9788556081e-02
 3  2  2    -2.8323464625e-01
 3  2  3     2.5439150544e-02
 3  3  1    -1.1290400389e-01
 3  3  2    -6.5185157051e-02
 3  3  3    -4.4949879615e-02

   17
0.0000000000e+00 0.0000000000e+00 0.0000000000e+00
1.5643618580e+00 2.7095542200e+00 0.0000000000e+00
     1      1      3
 1  1  1     2.3985181891e-01
 1  1  2    -3.2527611095e-01
 1  1  3     2.6462763170e-01
 1  2  1    -2.4101275325e-01
 1  2  2     1.2860007859e-01
 1  2  3     7.1092415151e-02
 1  3  1     3.7536653479e-01
 1  3  2     7.9788556081e-02
 1  3  3     4.4061901236e-02
 2  1  1    -2.4101275325e-01
 2  1  2     1.2860007859e-01
 2  1  3     7.1092415151e-02
 2  2  1    -1.7348338176e-02
 2  2  2     4.5373855565e-01
 2  2  3     1.8253718174e-01
 2  3  1     7.9788556081e-02
 2  3  2     2.8323464625e-01
 2  3  3     2.5439150544e-02
 3  1  1     3.7536653479e-01
 3  1  2     7.9788556081e-02
 3  1  3     4.4061901236e-02
 3  2  1     7.9788556081e-02
 3  2  2     2.8323464625e-01
 3  2  3     2.5439150544e-02
 3  3  1    -1.1290400389e-01
 3  3  2    -6.5185157051e-02
 3  3  3     4.4949879615e-02

   18
0.0000000000e+00 0.0000000000e+00 0.0000000000e+00
4.6930855740e+00 2.7095542200e+00 0.0000000000e+00
     1      1      1
 1  1  1     7.9032794509e-02
 1  1  2     1.1476044230e-01
 1  1  3     0.0000000000e+00
 1  2  1    -6.1154242510e-02
 1  2  2    -7.5220125802e-02
 1  2  3     0.0000000000e+00
 1  3  1     0.0000000000e+00
 1  3  2     0.0000000000e+00
 1  3  3    -5.4010946888e-02
 2  1  1    -6.1154242510e-02
 2  1  2    -7.5220125802e-02
 2  1  3     0.0000000000e+00
 2  2  1     2.2947304614e-01
 2  2  2     6.3355487855e-02
 2  2  3     0.0000000000e+00
 2  3  1     0.0000000000e+00
 2  3  2     0.0000000000e+00
 2  3  3    -3.1183234731e-02
 3  1  1     0.0000000000e+00
 3  1  2     0.0000000000e+00
 3  1  3    -5.4010946888e-02
 3  2  1     0.0000000000e+00
 3  2  2     0.0000000000e+00
 3  2  3    -3.1183234731e-02
 3  3  1    -9.0461312853e-03
 3  3  2    -5.2227863337e-03
 3  3  3     0.0000000000e+00

   19
0.0000000000e+00 0.0000000000e+00 0.0000000000e+00
-4.6930855740e+00 2.7095542200e+00 0.0000000000e+00
     1      1      1
 1  1  1    -7.9032794509e-02
 1  1  2     1.1476044230e-01
 1  1  3     0.0000000000e+00
 1  2  1    -6.1154242510e-02
 1  2  2     7.5220125802e-02
 1  2  3     0.0000000000e+00
 1  3  1     0.0000000000e+00
 1  3  2     0.0000000000e+00
 1  3  3     5.4010946888e-02
 2  1  1    -6.1154242510e-02
 2  1  2     7.5220125802e-02
 2  1  3     0.0000000000e+00
 2  2  1    -2.2947304614e-01
 2  2  2     6.3355487855e-02
 2  2  3     0.0000000000e+00
 2  3  1     0.0000000000e+00
 2  3  2     0.0000000000e+00
 2  3  3    -3.1183234731e-02
 3  1  1     0.0000000000e+00
 3  1  2     0.0000000000e+00
 3  1  3     5.4010946888e-02
 3  2  1     0.0000000000e+00
 3  2  2     0.0000000000e+00
 3  2  3    -3.1183234731e-02
 3  3  1     9.0461312853e-03
 3  3  2    -5.2227863337e-03
 3  3  3     0.0000000000e+00

   20
0.0000000000e+00 0.0000000000e+00 0.0000000000e+00
-4.6930855740e+00 2.7095542200e+00 0.0000000000e+00
     1      1      2
 1  1  1    -2.3985181891e-01
 1  1  2    -3.2527611095e-01
 1  1  3    -2.6462763170e-01
 1  2  1    -2.4101275325e-01
 1  2  2    -1.2860007859e-01
 1  2  3     7.1092415151e-02
 1  3  1    -3.7536653479e-01
 1  3  2     7.9788556081e-02
 1  3  3    -4.4061901236e-02
 2  1  1    -2.4101275325e-01
 2  1  2    -1.2860007859e-01
 2  1  3     7.1092415151e-02
 2  2  1     1.7348338176e-02
 2  2  2     4.5373855565e-01
 2  2  3    -1.8253718174e-01
 2  3  1     7.9788556081e-02
 2  3  2    -2.8323464625e-01
 2  3  3     2.5439150544e-02
 3  1  1    -3.7536653479e-01
 3  1  2     7.9788556081e-02
 3  1  3    -4.4061901236e-02
 3  2  1     7.9788556081e-02
 3  2  2    -2.8323464625e-01
 3  2  3     2.5439150544e-02
 3  3  1     1.1290400389e-01
 3  3  2    -6.5185157051e-02
 3  3  3    -4.4949879615e-02

   21
0.0000000000e+00 0.0000000000e+00 0.0000000000e+00
-4.6930855740e+00 2.7095542200e+00 0.0000000000e+00
     1      1      3
 1  1  1    -2.3985181891e-01
 1  1  2    -3.2527611095e-01
 1  1  3     2.6462763170e-01
 1  2  1    -2.4101275325e-01
 1  2  2    -1.2860007859e-01
 1  2  3    -7.1092415151e-02
 1  3  1     3.7536653479e-01
 1  3  2    -7.9788556081e-02
 1  3  3    -4.4061901236e-02
 2  1  1    -2.4101275325e-01
 2  1  2    -1.2860007859e-01
 2  1  3    -7.1092415151e-02
 2  2  1     1.7348338176e-02
 2  2  2     4.5373855565e-01
 2  2  3     1.8253718174e-01
 2  3  1    -7.9788556081e-02
 2  3  2     2.8323464625e-01
 2  3  3     2.5439150544e-02
 3  1  1     3.7536653479e-01
 3  1  2    -7.9788556081e-02
 3  1  3    -4.4061901236e-02
 3  2  1    -7.9788556081e-02
 3  2  2     2.8323464625e-01
 3  2  3     2.5439150544e-02
 3  3  1     1.1290400389e-01
 3  3  2    -6.5185157051e-02
 3  3  3     4.4949879615e-02

   22
0.0000000000e+00 0.0000000000e+00 0.0000000000e+00
-3.1287237160e+00 5.4191084400e+00 0.0000000000e+00
     1      1      2
 1  1  1    -6.0284754001e-02
 1  1  2     5.9640825141e-02
 1  1  3     1.4389152176e-01
 1  2  1    -5.6686903807e-02
 1  2  2    -1.4386365330e-02
 1  2  3    -2.1080391966e-02
 1  3  1    -8.3954503806e-02
 1  3  2     1.0592048541e-01
 1  3  3    -1.5481629072e-01
 2  1  1    -5.6686903807e-02
 2  1  2    -1.4386365330e-02
 2  1  3    -2.1080391966e-02
 2  2  1     9.7432209822e-02
 2  2  2     6.0789056071e-02
 2  2  3     4.1849590455e-02
 2  3  1    -8.0523994428e-02
 2  3  2    -1.0383473425e-01
 2  3  3    -1.1895881509e-01
 3  1  1    -8.3954503806e-02
 3  1  2     1.0592048541e-01
 3  1  3    -1.5481629072e-01
 3  2  1    -8.0523994428e-02
 3  2  2    -1.0383473425e-01
 3  2  3    -1.1895881509e-01
 3  3  1    -1.6757306903e-01
 3  3  2     1.4277553039e-01
 3  3  3    -1.7547163763e-01

   23
0.0000000000e+00 0.0000000000e+00 0.0000000000e+00
-3.1287237160e+00 5.4191084400e+00 0.0000000000e+00
     1      1      3
 1  1  1    -6.0284754001e-02
 1  1  2     5.9640825141e-02
 1  1  3    -1.4389152176e-01
 1  2  1    -5.6686903807e-02
 1  2  2    -1.4386365330e-02
 1  2  3     2.1080391966e-02
 1  3  1     8.3954503806e-02
 1  3  2    -1.0592048541e-01
 1  3  3    -1.5481629072e-01
 2  1  1    -5.6686903807e-02
 2  1  2    -1.4386365330e-02
 2  1  3     2.1080391966e-02
 2  2  1     9.7432209822e-02
 2  2  2     6.0789056071e-02
 2  2  3    -4.1849590455e-02
 2  3  1     8.0523994428e-02
 2  3  2     1.0383473425e-01
 2  3  3    -1.1895881509e-01
 3  1  1     8.3954503806e-02
 3  1  2    -1.0592048541e-01
 3  1  3    -1.5481629072e-01
 3  2  1     8.0523994428e-02
 3  2  2     1.0383473425e-01
 3  2  3    -1.1895881509e-01
 3  3  1    -1.6757306903e-01
 3  3  2     1.4277553039e-01
 3  3  3     1.7547163763e-01

   24
0.0000000000e+00 0.0000000000e+00 0.0000000000e+00
-5.5511151231e-16 5.4191084400e+00 0.0000000000e+00
     1      1      1
 1  1  1     0.0000000000e+00
 1  1  2    -1.0282856263e-01
 1  1  3     0.0000000000e+00
 1  2  1    -2.4088276633e-01
 1  2  2     0.0000000000e+00
 1  2  3     0.0000000000e+00
 1  3  1     0.0000000000e+00
 1  3  2     0.0000000000e+00
 1  3  3     0.0000000000e+00
 2  1  1    -2.4088276633e-01
 2  1  2     0.0000000000e+00
 2  1  3     0.0000000000e+00
 2  2  1     0.0000000000e+00
 2  2  2     8.9665341701e-02
 2  2  3     0.0000000000e+00
 2  3  1     0.0000000000e+00
 2  3  2     0.0000000000e+00
 2  3  3     5.6214328720e-02
 3  1  1     0.0000000000e+00
 3  1  2     0.0000000000e+00
 3  1  3     0.0000000000e+00
 3  2  1     0.0000000000e+00
 3  2  2     0.0000000000e+00
 3  2  3     5.6214328720e-02
 3  3  1     0.0000000000e+00
 3  3  2    -9.3822019584e-02
 3  3  3     0.0000000000e+00

   25
0.0000000000e+00 0.0000000000e+00 0.0000000000e+00
0.0000000000e+00 5.4191084400e+00 0.0000000000e+00
     1      1      2
 1  1  1     6.0284754001e-02
 1  1  2     5.9640825141e-02
 1  1  3     1.4389152176e-01
 1  2  1    -5.6686903807e-02
 1  2  2     1.4386365330e-02
 1  2  3     2.1080391966e-02
 1  3  1    -8.3954503806e-02
 1  3  2    -1.0592048541e-01
 1  3  3     1.5481629072e-01
 2  1  1    -5.6686903807e-02
 2  1  2     1.4386365330e-02
 2  1  3     2.1080391966e-02
 2  2  1    -9.7432209822e-02
 2  2  2     6.0789056071e-02
 2  2  3     4.1849590455e-02
 2  3  1     8.0523994428e-02
 2  3  2    -1.0383473425e-01
 2  3  3    -1.1895881509e-01
 3  1  1    -8.3954503806e-02
 3  1  2    -1.0592048541e-01
 3  1  3     1.5481629072e-01
 3  2  1     8.0523994428e-02
 3  2  2    -1.0383473425e-01
 3  2  3    -1.1895881509e-01
 3  3  1     1.6757306903e-01
 3  3  2     1.4277553039e-01
 3  3  3    -1.7547163763e-01

   26
0.0000000000e+00 0.0000000000e+00 0.0000000000e+00
0.0000000000e+00 5.4191084400e+00 0.0000000000e+00
     1      1      3
 1  1  1     6.0284754001e-02
 1  1  2     5.9640825141e-02
 1  1  3    -1.4389152176e-01
 1  2  1    -5.6686903807e-02
 1  2  2     1.4386365330e-02
 1  2  3    -2.1080391966e-02
 1  3  1     8.3954503806e-02
 1  3  2     1.0592048541e-01
 1  3  3     1.5481629072e-01
 2  1  1    -5.6686903807e-02
 2  1  2     1.4386365330e-02
 2  1  3    -2.1080391966e-02
 2  2  1    -9.7432209822e-02
 2  2  2     6.0789056071e-02
 2  2  3    -4.1849590455e-02
 2  3  1    -8.0523994428e-02
 2  3  2     1.0383473425e-01
 2  3  3    -1.1895881509e-01
 3  1  1     8.3954503806e-02
 3  1  2     1.0592048541e-01
 3  1  3     1.5481629072e-01
 3  2  1    -8.0523994428e-02
 3  2  2     1.0383473425e-01
 3  2  3    -1.1895881509e-01
 3  3  1     1.6757306903e-01
 3  3  2     1.4277553039e-01
 3  3  3     1.7547163763e-01

   27
0.0000000000e+00 0.0000000000e+00 0.0000000000e+00
0.0000000000e+00 -5.4191084400e+00 0.0000000000e+00
     1      1      1
 1  1  1     0.0000000000e+00
 1  1  2    -2.8269853251e-01
 1  1  3     0.0000000000e+00
 1  2  1     6.9130837107e-02
 1  2  2     0.0000000000e+00
 1  2  3     0.0000000000e+00
 1  3  1     0.0000000000e+00
 1  3  2     0.0000000000e+00
 1  3  3     0.0000000000e+00
 2  1  1     6.9130837107e-02
 2  1  2     0.0000000000e+00
 2  1  3     0.0000000000e+00
 2  2  1     0.0000000000e+00
 2  2  2    -7.3533327778e-02
 2  2  3     0.0000000000e+00
 2  3  1     0.0000000000e+00
 2  3  2     0.0000000000e+00
 2  3  3     6.2366469462e-02
 3  1  1     0.0000000000e+00
 3  1  2     0.0000000000e+00
 3  1  3     0.0000000000e+00
 3  2  1     0.0000000000e+00
 3  2  2     0.0000000000e+00
 3  2  3     6.2366469462e-02
 3  3  1     0.0000000000e+00
 3  3  2     1.0445572667e-02
 3  3  3     0.0000000000e+00

   28
0.0000000000e+00 0.0000000000e+00 0.0000000000e+00
1.5643618580e+00 -2.7095542200e+00 0.0000000000e+00
     1      1      1
 1  1  1    -1.8538840713e+00
 1  1  2     1.0078776232e+00
 1  1  3     0.0000000000e+00
 1  2  1     3.1563451423e+00
 1  2  2    -2.8292407845e+00
 1  2  3     0.0000000000e+00
 1  3  1     0.0000000000e+00
 1  3  2     0.0000000000e+00
 1  3  3     7.6533101869e-01
 2  1  1     3.1563451423e+00
 2  1  2    -2.8292407845e+00
 2  1  3     0.0000000000e+00
 2  2  1    -4.6322524201e+00
 2  2  2     3.8585213896e+00
 2  2  3     0.0000000000e+00
 2  3  1     0.0000000000e+00
 2  3  2     0.0000000000e+00
 2  3  3     1.4330823032e+00
 3  1  1     0.0000000000e+00
 3  1  2     0.0000000000e+00
 3  1  3     7.6533101869e-01
 3  2  1     0.0000000000e+00
 3  2  2     0.0000000000e+00
 3  2  3     1.4330823032e+00
 3  3  1     1.0687774868e-01
 3  3  2     2.1347760985e+00
 3  3  3     0.0000000000e+00

   29
0.0000000000e+00 0.0000000000e+00 0.0000000000e+00
1.5643618580e+00 -2.7095542200e+00 0.0000000000e+00
     1      1      2
 1  1  1     4.6061828567e-02
 1  1  2    -1.6304653576e-02
 1  1  3     4.9103918309e-02
 1  2  1    -5.4978515780e-02
 1  2  2    -7.9844820210e-02
 1  2  3     3.3645256414e-02
 1  3  1    -8.7867673430e-02
 1  3  2    -7.8264724892e-02
 1  3  3    -1.8042950121e-01
 2  1  1    -5.4978515780e-02
 2  1  2    -7.9844820210e-02
 2  1  3     3.3645256414e-02
 2  2  1     7.6807235818e-02
 2  2  2    -1.1739646621e-02
 2  2  3     1.3663719394e-01
 2  3  1     1.0817975495e-01
 2  3  2    -9.9921564624e-02
 2  3  3    -7.4595433158e-02
 3  1  1    -8.7867673430e-02
 3  1  2    -7.8264724892e-02
 3  1  3    -1.8042950121e-01
 3  2  1     1.0817975495e-01
 3  2  2    -9.9921564624e-02
 3  2  3    -7.4595433158e-02
 3  3  1     3.9860701816e-02
 3  3  2    -2.1651029999e-01
 3  3  3    -1.7547163763e-01

   30
0.0000000000e+00 0.0000000000e+00 0.0000000000e+00
1.5643618580e+00 -2.7095542200e+00 0.0000000000e+00
     1      1      3
 1  1  1     4.6061828567e-02
 1  1  2    -1.6304653576e-02
 1  1  3    -4.9103918309e-02
 1  2  1    -5.4978515780e-02
 1  2  2    -7.9844820210e-02
 1  2  3    -3.3645256414e-02
 1  3  1     8.7867673430e-02
 1  3  2     7.8264724892e-02
 1  3  3    -1.8042950121e-01
 2  1  1    -5.4978515780e-02
 2  1  2    -7.9844820210e-02
 2  1  3    -3.3645256414e-02
 2  2  1     7.6807235818e-02
 2  2  2    -1.1739646621e-02
 2  2  3    -1.3663719394e-01
 2  3  1    -1.0817975495e-01
 2  3  2     9.9921564624e-02
 2  3  3    -7.4595433158e-02
 3  1  1     8.7867673430e-02
 3  1  2     7.8264724892e-02
 3  1  3    -1.8042950121e-01
 3  2  1    -1.0817975495e-01
 3  2  2     9.9921564624e-02
 3  2  3    -7.4595433158e-02
 3  3  1     3.9860701816e-02
 3  3  2    -2.1651029999e-01
 3  3  3     1.7547163763e-01

   31
0.0000000000e+00 0.0000000000e+00 0.0000000000e+00
4.6930855740e+00 -2.7095542200e+00 0.0000000000e+00
     1      1      1
 1  1  1    -6.8328986552e-02
 1  1  2    -2.0143300755e-01
 1  1  3     0.0000000000e+00
 1  2  1    -1.3240590569e-01
 1  2  2    -6.2629144704e-02
 1  2  3     0.0000000000e+00
 1  3  1     0.0000000000e+00
 1  3  2     0.0000000000e+00
 1  3  3     4.8683036719e-02
 2  1  1    -1.3240590569e-01
 2  1  2    -6.2629144704e-02
 2  1  3     0.0000000000e+00
 2  2  1     5.6929302829e-02
 2  2  2     2.0801461811e-01
 2  2  3     0.0000000000e+00
 2  3  1     0.0000000000e+00
 2  3  2     0.0000000000e+00
 2  3  3    -2.8107164360e-02
 3  1  1     0.0000000000e+00
 3  1  2     0.0000000000e+00
 3  1  3     4.8683036719e-02
 3  2  1     0.0000000000e+00
 3  2  2     0.0000000000e+00
 3  2  3    -2.8107164360e-02
 3  3  1    -8.1252252378e-02
 3  3  2     4.6911009792e-02
 3  3  3     0.0000000000e+00

   32
0.0000000000e+00 0.0000000000e+00 0.0000000000e+00
-4.6930855740e+00 -2.7095542200e+00 0.0000000000e+00
     1      1      1
 1  1  1     6.8328986552e-02
 1  1  2    -2.0143300755e-01
 1  1  3     0.0000000000e+00
 1  2  1    -1.3240590569e-01
 1  2  2     6.2629144704e-02
 1  2  3     0.0000000000e+00
 1  3  1     0.0000000000e+00
 1  3  2     0.0000000000e+00
 1  3  3    -4.8683036719e-02
 2  1  1    -1.3240590569e-01
 2  1  2     6.2629144704e-02
 2  1  3     0.0000000000e+00
 2  2  1    -5.6929302829e-02
 2  2  2     2.0801461811e-01
 2  2  3     0.0000000000e+00
 2  3  1     0.0000000000e+00
 2  3  2     0.0000000000e+00
 2  3  3    -2.8107164360e-02
 3  1  1     0.0000000000e+00
 3  1  2     0.0000000000e+00
 3  1  3    -4.8683036719e-02
 3  2  1     0.0000000000e+00
 3  2  2     0.0000000000e+00