   0.34043E+01   0.38584E-02   0.38584E-02
   0.68087E+01   0.38578E-02   0.38578E-02
   0.10213E+02   0.41561E-02   0.41561E-02
   0.13617E+02   0.40448E-02   0.40448E-02
   0.17022E+02   0.43812E-02   0.43812E-02
   0.20426E+02   0.46641E-02   0.46641E-02
   0.23830E+02   0.48387E-02   0.48387E-02
   0.27235E+02   0.49015E-02   0.49015E-02
   0.30639E+02   0.48743E-02   0.48743E-02
   0.34043E+02   0.50900E-02   0.50900E-02
   0.37448E+02   0.55244E-02   0.55244E-02
   0.40852E+02   0.56990E-02   0.56990E-02
   0.44256E+02   0.57149E-02   0.57149E-02
   0.47661E+02   0.62463E-02   0.62463E-02
   0.51065E+02   0.63138E-02   0.63138E-02
   0.54469E+02   0.66061E-02   0.66061E-02
   0.57874E+02   0.70173E-02   0.70173E-02
   0.61278E+02   0.71054E-02   0.71054E-02
   0.64682E+02   0.76816E-02   0.76816E-02
   0.68087E+02   0.78716E-02   0.78716E-02
   0.71491E+02   0.82296E-02   0.82296E-02
   0.74896E+02   0.88140E-02   0.88140E-02
   0.78300E+02   0.94287E-02   0.94287E-02
   0.81704E+02   0.10322E-01   0.10322E-01
   0.85109E+02   0.12251E-01   0.12251E-01
   0.88513E+02   0.17749E-01   0.17749E-01
   0.91917E+02   0.76207E-02   0.76207E-02
   0.95322E+02   0.65578E-02   0.65578E-02
   0.98726E+02   0.53390E-02   0.53390E-02
   0.10213E+03   0.52161E-02   0.52161E-02
   0.10553E+03   0.69848E-02   0.69848E-02
   0.10894E+03   0.84802E-02   0.84802E-02
   0.11234E+03   0.10773E-01   0.10773E-01
   0.11575E+03   0.14047E-01   0.14047E-01
   0.11915E+03   0.21369E-01   0.21369E-01
   0.12256E+03   0.17841E-01   0.17841E-01
   0.12596E+03   0.15505E-01   0.15505E-01
   0.12936E+03   0.14802E-01   0.14802E-01
   0.13277E+03   0.14217E-01   0.14217E-01
   0.13617E+03   0.14088E-01   0.14088E-01
   0.13958E+03   0.13415E-01   0.13415E-01
   0.14298E+03   0.12760E-01   0.12760E-01
   0.14639E+03   0.13385E-01   0.13385E-01
   0.14979E+03   0.13088E-01   0.13088E-01
   0.15320E+03   0.13256E-01   0.13256E-01
   0.15660E+03   0.14368E-01   0.14368E-01
   0.16000E+03   0.15062E-01   0.15062E-01
   0.16341E+03   0.15332E-01   0.15332E-01
   0.16681E+03   0.16860E-01   0.16860E-01
   0.17022E+03   0.50120E-02   0.50120E-02
   0.17362E+03   0.48024E-02   0.48024E-02
   0.17703E+03   0.46225E-02   0.46225E-02
   0.18043E+03   0.47645E-02   0.47645E-02
   0.18383E+03   0.45538E-02   0.45538E-02
   0.18724E+03   0.43353E-02   0.43353E-02
   0.19064E+03   0.33077E-02   0.33077E-02
   0.19405E+03   0.34226E-02   0.34226E-02
   0.19745E+03   0.35198E-02   0.35198E-02
   0.20086E+03   0.38427E-02   0.38427E-02
   0.20426E+03   0.39078E-02   0.39078E-02
   0.20766E+03   0.42774E-02   0.42774E-02
   0.21107E+03   0.44113E-02   0.44113E-02
   0.21447E+03   0.46835E-02   0.46835E-02
   0.21788E+03   0.50632E-02   0.50632E-02
   0.22128E+03   0.54272E-02   0.54272E-02
   0.22469E+03   0.58557E-02   0.58557E-02
   0.22809E+03   0.66780E-02   0.66780E-02
   0.23150E+03   0.10006E-01   0.10006E-01
   0.23490E+03   0.52147E-02   0.52147E-02
   0.23830E+03   0.58648E-02   0.58648E-02
   0.24171E+03   0.53463E-02   0.53463E-02
   0.24511E+03   0.58888E-02   0.58888E-02
   0.24852E+03   0.53648E-02   0.53648E-02
   0.25192E+03   0.61793E-02   0.61793E-02
   0.25533E+03   0.41550E-02   0.41550E-02
   0.25873E+03   0.16324E-01   0.16324E-01
   0.26213E+03   0.15503E-01   0.15503E-01
   0.26554E+03   0.18302E-01   0.18302E-01
   0.26894E+03   0.26582E-01   0.26582E-01
   0.27235E+03   0.29556E-01   0.29556E-01
   0.27575E+03   0.21919E-01   0.21919E-01
   0.27916E+03   0.16460E-01   0.16460E-01
   0.28256E+03   0.15170E-01   0.15170E-01
   0.28596E+03   0.15716E-01   0.15716E-01
   0.28937E+03   0.13447E-01   0.13447E-01
   0.29277E+03   0.12506E-01   0.12506E-01
   0.29618E+03   0.13147E-01   0.13147E-01
   0.29958E+03   0.12559E-01   0.12559E-01
   0.30299E+03   0.12148E-01   0.12148E-01
   0.30639E+03   0.14665E-01   0.14665E-01
   0.30980E+03   0.00000E+00   0.00000E+00
   0.31320E+03   0.00000E+00   0.00000E+00
   0.31660E+03   0.00000E+00   0.00000E+00
   0.32001E+03   0.00000E+00   0.00000E+00
   0.32341E+03   0.00000E+00   0.00000E+00
   0.32682E+03   0.00000E+00   0.00000E+00
   0.33022E+03   0.00000E+00   0.00000E+00
   0.33363E+03   0.00000E+00   0.00000E+00
   0.33703E+03   0.00000E+00   0.00000E+00
   0.34043E+03   0.00000E+00   0.00000E+00
