   0.87223E+00   0.17693E-04   0.14612E-04
   0.17445E+01   0.15447E-03   0.12759E-03
   0.26167E+01   0.27421E-03   0.22644E-03
   0.34889E+01   0.53395E-03   0.44057E-03
   0.43612E+01   0.79605E-03   0.65657E-03
   0.52334E+01   0.10699E-02   0.88140E-03
   0.61056E+01   0.15996E-02   0.13167E-02
   0.69779E+01   0.19104E-02   0.15703E-02
   0.78501E+01   0.25591E-02   0.21000E-02
   0.87223E+01   0.30573E-02   0.25049E-02
   0.95946E+01   0.37635E-02   0.30761E-02
   0.10467E+02   0.44416E-02   0.36227E-02
   0.11339E+02   0.52200E-02   0.42444E-02
   0.12211E+02   0.61787E-02   0.50094E-02
   0.13084E+02   0.69742E-02   0.56327E-02
   0.13956E+02   0.81310E-02   0.65400E-02
   0.14828E+02   0.91121E-02   0.72995E-02
   0.15700E+02   0.10457E-01   0.83272E-02
   0.16572E+02   0.11594E-01   0.91880E-02
   0.17445E+02   0.13245E-01   0.10419E-01
   0.18317E+02   0.14610E-01   0.11424E-01
   0.19189E+02   0.16428E-01   0.12724E-01
   0.20061E+02   0.18369E-01   0.14128E-01
   0.20934E+02   0.20256E-01   0.15395E-01
   0.21806E+02   0.23256E-01   0.17516E-01
   0.22678E+02   0.24784E-01   0.18399E-01
   0.23550E+02   0.29495E-01   0.21642E-01
   0.24423E+02   0.32422E-01   0.23388E-01
   0.25295E+02   0.35662E-01   0.25281E-01
   0.26167E+02   0.41805E-01   0.29080E-01
   0.27039E+02   0.51723E-01   0.35109E-01
   0.27911E+02   0.60885E-01   0.40396E-01
   0.28784E+02   0.62977E-01   0.40707E-01
   0.29656E+02   0.66464E-01   0.41760E-01
   0.30528E+02   0.69389E-01   0.42038E-01
   0.31400E+02   0.74123E-01   0.42948E-01
   0.32273E+02   0.77819E-01   0.42625E-01
   0.33145E+02   0.84396E-01   0.42760E-01
   0.34017E+02   0.91648E-01   0.41564E-01
   0.34889E+02   0.10529E+00   0.39425E-01
   0.35762E+02   0.10886E+00   0.31856E-01
   0.36634E+02   0.10645E+00   0.30878E-01
   0.37506E+02   0.81890E-01   0.28336E-01
   0.38378E+02   0.68291E-01   0.25421E-01
   0.39251E+02   0.57281E-01   0.21950E-01
   0.40123E+02   0.45241E-01   0.18273E-01
   0.40995E+02   0.44166E-01   0.10770E+00
   0.41867E+02   0.48861E-01   0.10743E+00
   0.42739E+02   0.59063E-01   0.10771E+00
   0.43612E+02   0.68467E-01   0.10517E+00
   0.44484E+02   0.79463E-01   0.10478E+00
   0.45356E+02   0.78140E-01   0.93866E-01
   0.46228E+02   0.77033E-01   0.96612E-01
   0.47101E+02   0.87114E-01   0.10530E+00
   0.47973E+02   0.94081E-01   0.10377E+00
   0.48845E+02   0.10528E+00   0.10671E+00
   0.49717E+02   0.11337E+00   0.11169E+00
   0.50590E+02   0.13486E+00   0.13187E+00
   0.51462E+02   0.11272E+00   0.13000E+00
   0.52334E+02   0.10834E+00   0.13134E+00
   0.53206E+02   0.11920E+00   0.15855E+00
   0.54079E+02   0.76410E-01   0.88687E-01
   0.54951E+02   0.45947E-01   0.86166E-01
   0.55823E+02   0.41974E-01   0.14170E+00
   0.56695E+02   0.26607E-01   0.97675E-01
   0.57567E+02   0.17325E-01   0.47482E-01
   0.58440E+02   0.16849E-01   0.40736E-01
   0.59312E+02   0.15692E-01   0.37202E-01
   0.60184E+02   0.16687E-01   0.31930E-01
   0.61056E+02   0.16529E-01   0.27965E-01
   0.61929E+02   0.16216E-01   0.25361E-01
   0.62801E+02   0.16022E-01   0.23625E-01
   0.63673E+02   0.15213E-01   0.21501E-01
   0.64545E+02   0.14958E-01   0.20418E-01
   0.65418E+02   0.14333E-01   0.19039E-01
   0.66290E+02   0.13514E-01   0.17569E-01
   0.67162E+02   0.13420E-01   0.17119E-01
   0.68034E+02   0.12338E-01   0.15522E-01
   0.68906E+02   0.11773E-01   0.14634E-01
   0.69779E+02   0.11605E-01   0.14273E-01
   0.70651E+02   0.10593E-01   0.12935E-01
   0.71523E+02   0.96634E-02   0.11733E-01
   0.72395E+02   0.92804E-02   0.11210E-01
   0.73268E+02   0.88292E-02   0.10625E-01
   0.74140E+02   0.81419E-02   0.97760E-02
   0.75012E+02   0.73379E-02   0.88012E-02
   0.75884E+02   0.64850E-02   0.77787E-02
   0.76757E+02   0.52050E-02   0.62516E-02
   0.77629E+02   0.43661E-02   0.52523E-02
   0.78501E+02   0.29204E-02   0.35226E-02
   0.79373E+02   0.19260E-03   0.23295E-03
   0.80246E+02   0.00000E+00   0.00000E+00
   0.81118E+02   0.00000E+00   0.00000E+00
   0.81990E+02   0.00000E+00   0.00000E+00
   0.82862E+02   0.00000E+00   0.00000E+00
   0.83734E+02   0.00000E+00   0.00000E+00
   0.84607E+02   0.00000E+00   0.00000E+00
   0.85479E+02   0.00000E+00   0.00000E+00
   0.86351E+02   0.00000E+00   0.00000E+00
   0.87223E+02   0.00000E+00   0.00000E+00
