 1989

    1
0.0000000000e+00 0.0000000000e+00 0.0000000000e+00
0.0000000000e+00 0.0000000000e+00 0.0000000000e+00
     1      1      1
 1  1  1     1.6267485102e-08
 1  1  2    -1.5583127375e+01
 1  1  3     0.0000000000e+00
 1  2  1    -1.5583127375e+01
 1  2  2    -5.4224950395e-09
 1  2  3     0.0000000000e+00
 1  3  1     0.0000000000e+00
 1  3  2     0.0000000000e+00
 1  3  3     0.0000000000e+00
 2  1  1    -1.5583127375e+01
 2  1  2    -5.4224950395e-09
 2  1  3     0.0000000000e+00
 2  2  1    -5.4224950395e-09
 2  2  2     1.5583127390e+01
 2  2  3     0.0000000000e+00
 2  3  1     0.0000000000e+00
 2  3  2     0.0000000000e+00
 2  3  3     0.0000000000e+00
 3  1  1     0.0000000000e+00
 3  1  2     0.0000000000e+00
 3  1  3     0.0000000000e+00
 3  2  1     0.0000000000e+00
 3  2  2     0.0000000000e+00
 3  2  3     0.0000000000e+00
 3  3  1     0.0000000000e+00
 3  3  2     0.0000000000e+00
 3  3  3     0.0000000000e+00

    2
0.0000000000e+00 0.0000000000e+00 0.0000000000e+00
0.0000000000e+00 0.0000000000e+00 0.0000000000e+00
     1      1      2
 1  1  1    -7.3236582508e+00
 1  1  2     4.3168844688e+00
 1  1  3    -9.0113349088e+00
 1  2  1     3.3036791593e+00
 1  2  2    -1.8562450599e+00
 1  2  3     4.2019516503e+00
 1  3  1    -8.8866610102e+00
 1  3  2     5.3170847741e+00
 1  3  3    -8.6093217892e+00
 2  1  1     3.3036791593e+00
 2  1  2    -1.8562450599e+00
 2  1  3     4.2019516503e+00
 2  2  1    -3.6111681364e+00
 2  2  2     1.9963404911e+00
 2  2  3    -4.1593390811e+00
 2  3  1     5.3170847741e+00
 2  3  2    -2.7470203620e+00
 2  3  3     4.9705942540e+00
 3  1  1    -8.8866610102e+00
 3  1  2     5.3170847741e+00
 3  1  3    -8.6093217892e+00
 3  2  1     5.3170847741e+00
 3  2  2    -2.7470203620e+00
 3  2  3     4.9705942540e+00
 3  3  1    -8.8253227070e+00
 3  3  2     5.0953024420e+00
 3  3  3    -8.9676889414e+00

    3
0.0000000000e+00 0.0000000000e+00 0.0000000000e+00
0.0000000000e+00 0.0000000000e+00 0.0000000000e+00
     1      1      3
 1  1  1    -7.3236582508e+00
 1  1  2     4.3168844688e+00
 1  1  3     9.0113349088e+00
 1  2  1     3.3036791593e+00
 1  2  2    -1.8562450599e+00
 1  2  3    -4.2019516503e+00
 1  3  1     8.8866610102e+00
 1  3  2    -5.3170847741e+00
 1  3  3    -8.6093217892e+00
 2  1  1     3.3036791593e+00
 2  1  2    -1.8562450599e+00
 2  1  3    -4.2019516503e+00
 2  2  1    -3.6111681364e+00
 2  2  2     1.9963404911e+00
 2  2  3     4.1593390811e+00
 2  3  1    -5.3170847741e+00
 2  3  2     2.7470203620e+00
 2  3  3     4.9705942540e+00
 3  1  1     8.8866610102e+00
 3  1  2    -5.3170847741e+00
 3  1  3    -8.6093217892e+00
 3  2  1    -5.3170847741e+00
 3  2  2     2.7470203620e+00
 3  2  3     4.9705942540e+00
 3  3  1    -8.8253227070e+00
 3  3  2     5.0953024420e+00
 3  3  3     8.9676889414e+00

    4
0.0000000000e+00 0.0000000000e+00 0.0000000000e+00
3.3183706760e+00 0.0000000000e+00 0.0000000000e+00
     1      1      1
 1  1  1    -4.6170586822e+00
 1  1  2     2.2967064532e+00
 1  1  3     0.0000000000e+00
 1  2  1     2.6746074871e-01
 1  2  2    -2.6670740393e-01
 1  2  3     0.0000000000e+00
 1  3  1     0.0000000000e+00
 1  3  2     0.0000000000e+00
 1  3  3    -6.4127462344e-01
 2  1  1     2.6746074871e-01
 2  1  2    -2.6670740393e-01
 2  1  3     0.0000000000e+00
 2  2  1     3.1168541111e-01
 2  2  2    -9.6691224696e-03
 2  2  3     0.0000000000e+00
 2  3  1     0.0000000000e+00
 2  3  2     0.0000000000e+00
 2  3  3    -1.0969982734e+00
 3  1  1     0.0000000000e+00
 3  1  2     0.0000000000e+00
 3  1  3    -6.4127462344e-01
 3  2  1     0.0000000000e+00
 3  2  2     0.0000000000e+00
 3  2  3    -1.0969982734e+00
 3  3  1    -1.4453739552e+00
 3  3  2    -7.3795120611e-01
 3  3  3     0.0000000000e+00

    5
0.0000000000e+00 0.0000000000e+00 0.0000000000e+00
3.3183706760e+00 0.0000000000e+00 0.0000000000e+00
     1      1      2
 1  1  1     3.0165280949e-02
 1  1  2    -1.0193171225e-01
 1  1  3     6.0528662614e-02
 1  2  1     2.4000965736e-02
 1  2  2     2.7071034586e-02
 1  2  3     4.9162867763e-02
 1  3  1    -7.3070178218e-02
 1  3  2     7.0461258525e-02
 1  3  3    -3.4539291326e-02
 2  1  1     2.4000965736e-02
 2  1  2     2.7071034586e-02
 2  1  3     4.9162867763e-02
 2  2  1     6.4086160772e-02
 2  2  2     6.2156150694e-02
 2  2  3     7.0241136608e-02
 2  3  1    -6.7947955829e-02
 2  3  2    -5.3490794718e-02
 2  3  3     1.4392557516e-01
 3  1  1    -7.3070178218e-02
 3  1  2     7.0461258525e-02
 3  1  3    -3.4539291326e-02
 3  2  1    -6.7947955829e-02
 3  2  2    -5.3490794718e-02
 3  2  3     1.4392557516e-01
 3  3  1     1.7222870005e-01
 3  3  2     5.7675055886e-02
 3  3  3    -1.4878156539e-01

    6
0.0000000000e+00 0.0000000000e+00 0.0000000000e+00
3.3183706760e+00 0.0000000000e+00 0.0000000000e+00
     1      1      3
 1  1  1     3.0165280949e-02
 1  1  2    -1.0193171225e-01
 1  1  3    -6.0528662614e-02
 1  2  1     2.4000965736e-02
 1  2  2     2.7071034586e-02
 1  2  3    -4.9162867763e-02
 1  3  1     7.3070178218e-02
 1  3  2    -7.0461258525e-02
 1  3  3    -3.4539291326e-02
 2  1  1     2.4000965736e-02
 2  1  2     2.7071034586e-02
 2  1  3    -4.9162867763e-02
 2  2  1     6.4086160772e-02
 2  2  2     6.2156150694e-02
 2  2  3    -7.0241136608e-02
 2  3  1     6.7947955829e-02
 2  3  2     5.3490794718e-02
 2  3  3     1.4392557516e-01
 3  1  1     7.3070178218e-02
 3  1  2    -7.0461258525e-02
 3  1  3    -3.4539291326e-02
 3  2  1     6.7947955829e-02
 3  2  2     5.3490794718e-02
 3  2  3     1.4392557516e-01
 3  3  1     1.7222870005e-01
 3  3  2     5.7675055886e-02
 3  3  3     1.4878156539e-01

    7
0.0000000000e+00 0.0000000000e+00 0.0000000000e+00
-6.6367413520e+00 0.0000000000e+00 0.0000000000e+00
     1      1      2
 1  1  1    -3.0165280912e-02
 1  1  2    -1.0193171221e-01
 1  1  3     6.0528662683e-02
 1  2  1     2.4000965799e-02
 1  2  2    -2.7071034629e-02
 1  2  3    -4.9162867812e-02
 1  3  1    -7.3070178216e-02
 1  3  2    -7.0461258488e-02
 1  3  3     3.4539291226e-02
 2  1  1     2.4000965799e-02
 2  1  2    -2.7071034629e-02
 2  1  3    -4.9162867812e-02
 2  2  1    -6.4086160816e-02
 2  2  2     6.2156150694e-02
 2  2  3     7.0241136608e-02
 2  3  1     6.7947955866e-02
 2  3  2    -5.3490794718e-02
 2  3  3     1.4392557516e-01
 3  1  1    -7.3070178216e-02
 3  1  2    -7.0461258488e-02
 3  1  3     3.4539291226e-02
 3  2  1     6.7947955866e-02
 3  2  2    -5.3490794718e-02
 3  2  3     1.4392557516e-01
 3  3  1    -1.7222870009e-01
 3  3  2     5.7675055886e-02
 3  3  3    -1.4878156539e-01

    8
0.0000000000e+00 0.0000000000e+00 0.0000000000e+00
-6.6367413520e+00 0.0000000000e+00 0.0000000000e+00
     1      1      3
 1  1  1    -3.0165280912e-02
 1  1  2    -1.0193171221e-01
 1  1  3    -6.0528662683e-02
 1  2  1     2.4000965799e-02
 1  2  2    -2.7071034629e-02
 1  2  3     4.9162867812e-02
 1  3  1     7.3070178216e-02
 1  3  2     7.0461258488e-02
 1  3  3     3.4539291226e-02
 2  1  1     2.4000965799e-02
 2  1  2    -2.7071034629e-02
 2  1  3     4.9162867812e-02
 2  2  1    -6.4086160816e-02
 2  2  2     6.2156150694e-02
 2  2  3    -7.0241136608e-02
 2  3  1    -6.7947955866e-02
 2  3  2     5.3490794718e-02
 2  3  3     1.4392557516e-01
 3  1  1     7.3070178216e-02
 3  1  2     7.0461258488e-02
 3  1  3     3.4539291226e-02
 3  2  1    -6.7947955866e-02
 3  2  2     5.3490794718e-02
 3  2  3     1.4392557516e-01
 3  3  1    -1.7222870009e-01
 3  3  2     5.7675055886e-02
 3  3  3     1.4878156539e-01

    9
0.0000000000e+00 0.0000000000e+00 0.0000000000e+00
-3.3183706760e+00 0.0000000000e+00 0.0000000000e+00
     1      1      1
 1  1  1     4.6170586802e+00
 1  1  2     2.2967064528e+00
 1  1  3     0.0000000000e+00
 1  2  1     2.6746074874e-01
 1  2  2     2.6670740394e-01
 1  2  3     0.0000000000e+00
 1  3  1     0.0000000000e+00
 1  3  2     0.0000000000e+00
 1  3  3     6.4127462420e-01
 2  1  1     2.6746074874e-01
 2  1  2     2.6670740394e-01
 2  1  3     0.0000000000e+00
 2  2  1    -3.1168541110e-01
 2  2  2    -9.6691224696e-03
 2  2  3     0.0000000000e+00
 2  3  1     0.0000000000e+00
 2  3  2     0.0000000000e+00
 2  3  3    -1.0969982734e+00
 3  1  1     0.0000000000e+00
 3  1  2     0.0000000000e+00
 3  1  3     6.4127462420e-01
 3  2  1     0.0000000000e+00
 3  2  2     0.0000000000e+00
 3  2  3    -1.0969982734e+00
 3  3  1     1.4453739557e+00
 3  3  2    -7.3795120611e-01
 3  3  3     0.0000000000e+00

   10
0.0000000000e+00 0.0000000000e+00 0.0000000000e+00
-3.3183706760e+00 0.0000000000e+00 0.0000000000e+00
     1      1      2
 1  1  1     7.3236582432e+00
 1  1  2     4.3168844662e+00
 1  1  3    -9.0113349029e+00
 1  2  1     3.3036791555e+00
 1  2  2     1.8562450585e+00
 1  2  3    -4.2019516475e+00
 1  3  1    -8.8866610028e+00
 1  3  2    -5.3170847722e+00
 1  3  3     8.6093217857e+00
 2  1  1     3.3036791555e+00
 2  1  2     1.8562450585e+00
 2  1  3    -4.2019516475e+00
 2  2  1     3.6111681351e+00
 2  2  2     1.9963404911e+00
 2  2  3    -4.1593390811e+00
 2  3  1    -5.3170847722e+00
 2  3  2    -2.7470203620e+00
 2  3  3     4.9705942540e+00
 3  1  1    -8.8866610028e+00
 3  1  2    -5.3170847722e+00
 3  1  3     8.6093217857e+00
 3  2  1    -5.3170847722e+00
 3  2  2    -2.7470203620e+00
 3  2  3     4.9705942540e+00
 3  3  1     8.8253227034e+00
 3  3  2     5.0953024420e+00
 3  3  3    -8.9676889414e+00

   11
0.0000000000e+00 0.0000000000e+00 0.0000000000e+00
-3.3183706760e+00 0.0000000000e+00 0.0000000000e+00
     1      1      3
 1  1  1     7.3236582432e+00
 1  1  2     4.3168844662e+00
 1  1  3     9.0113349029e+00
 1  2  1     3.3036791555e+00
 1  2  2     1.8562450585e+00
 1  2  3     4.2019516475e+00
 1  3  1     8.8866610028e+00
 1  3  2     5.3170847722e+00
 1  3  3     8.6093217857e+00
 2  1  1     3.3036791555e+00
 2  1  2     1.8562450585e+00
 2  1  3     4.2019516475e+00
 2  2  1     3.6111681351e+00
 2  2  2     1.9963404911e+00
 2  2  3     4.1593390811e+00
 2  3  1     5.3170847722e+00
 2  3  2     2.7470203620e+00
 2  3  3     4.9705942540e+00
 3  1  1     8.8866610028e+00
 3  1  2     5.3170847722e+00
 3  1  3     8.6093217857e+00
 3  2  1     5.3170847722e+00
 3  2  2     2.7470203620e+00
 3  2  3     4.9705942540e+00
 3  3  1     8.8253227034e+00
 3  3  2     5.0953024420e+00
 3  3  3     8.9676889414e+00

   12
0.0000000000e+00 0.0000000000e+00 0.0000000000e+00
-1.6591853390e+00 2.8737933060e+00 0.0000000000e+00
     1      1      1
 1  1  1     5.3495704054e-02
 1  1  2    -7.6455604688e-01
 1  1  3     0.0000000000e+00
 1  2  1    -2.5083606496e-01
 1  2  2     2.1651332452e+00
 1  2  3     0.0000000000e+00
 1  3  1     0.0000000000e+00
 1  3  2     0.0000000000e+00
 1  3  3     1.2706656841e+00
 2  1  1    -2.5083606496e-01
 2  1  2     2.1651332452e+00
 2  1  3     0.0000000000e+00
 2  2  1     1.1855850641e-01
 2  2  2    -4.1075252507e+00
 2  2  3     0.0000000000e+00
 2  3  1     0.0000000000e+00
 2  3  2     0.0000000000e+00
 2  3  3    -6.8609785970e-03
 3  1  1     0.0000000000e+00
 3  1  2     0.0000000000e+00
 3  1  3     1.2706656841e+00
 3  2  1     0.0000000000e+00
 3  2  2     0.0000000000e+00
 3  2  3    -6.8609785970e-03
 3  3  1     1.3617714690e+00
 3  3  2    -8.8275496094e-01
 3  3  3     0.0000000000e+00

   13
0.0000000000e+00 0.0000000000e+00 0.0000000000e+00
-1.6591853390e+00 2.8737933060e+00 0.0000000000e+00
     1      1      2
 1  1  1     6.1267719875e-10
 1  1  2    -1.9378422152e+00
 1  1  3    -1.7333411626e+00
 1  2  1     8.8568405105e-02
 1  2  2     3.7193379910e-09
 1  2  3     3.9798739875e-09
 1  3  1     3.2279996429e-01
 1  3  2     4.1605235417e-09
 1  3  3     3.4592577053e-09
 2  1  1     8.8568405105e-02
 2  1  2     3.7193387348e-09
 2  1  3     3.9798739875e-09
 2  2  1     3.7193390020e-09
 2  2  2    -1.0688607709e+01
 2  2  3    -1.1437332832e+01
 2  3  1     4.1605238369e-09
 2  3  2    -1.1956481342e+01
 2  3  3    -9.9411885079e+00
 3  1  1     3.2279996429e-01
 3  1  2     4.1605232515e-09
 3  1  3     3.4592573014e-09
 3  2  1     4.1605232515e-09
 3  2  2    -1.1956481342e+01
 3  2  3    -9.9411885079e+00
 3  3  1     3.5460472681e-09
 3  3  2    -1.0190604884e+01
 3  3  3    -8.9676889414e+00

   14
0.0000000000e+00 0.0000000000e+00 0.0000000000e+00
-1.6591853390e+00 2.8737933060e+00 0.0000000000e+00
     1      1      3
 1  1  1     6.1267719875e-10
 1  1  2    -1.9378422152e+00
 1  1  3     1.7333411626e+00
 1  2  1     8.8568405105e-02
 1  2  2     3.7193379910e-09
 1  2  3    -3.9798739875e-09
 1  3  1    -3.2279996429e-01
 1  3  2    -4.1605235417e-09
 1  3  3     3.4592577053e-09
 2  1  1     8.8568405105e-02
 2  1  2     3.7193387348e-09
 2  1  3    -3.9798739875e-09
 2  2  1     3.7193390020e-09
 2  2  2    -1.0688607709e+01
 2  2  3     1.1437332832e+01
 2  3  1    -4.1605238369e-09
 2  3  2     1.1956481342e+01
 2  3  3    -9.9411885079e+00
 3  1  1    -3.2279996429e-01
 3  1  2    -4.1605232515e-09
 3  1  3     3.4592573014e-09
 3  2  1    -4.1605232515e-09
 3  2  2     1.1956481342e+01
 3  2  3    -9.9411885079e+00
 3  3  1     3.5460472681e-09
 3  3  2    -1.0190604884e+01
 3  3  3     8.9676889414e+00

   15
0.0000000000e+00 0.0000000000e+00 0.0000000000e+00
1.6591853370e+00 2.8737933060e+00 0.0000000000e+00
     1      1      1
 1  1  1    -5.3495703173e-02
 1  1  2    -7.6455604387e-01
 1  1  3     0.0000000000e+00
 1  2  1    -2.5083606337e-01
 1  2  2    -2.1651332424e+00
 1  2  3     0.0000000000e+00
 1  3  1     0.0000000000e+00
 1  3  2     0.0000000000e+00
 1  3  3    -1.2706656841e+00
 2  1  1    -2.5083606337e-01
 2  1  2    -2.1651332424e+00
 2  1  3     0.0000000000e+00
 2  2  1    -1.1855850355e-01
 2  2  2    -4.1075252507e+00
 2  2  3     0.0000000000e+00
 2  3  1     0.0000000000e+00
 2  3  2     0.0000000000e+00
 2  3  3    -6.8609785970e-03
 3  1  1     0.0000000000e+00
 3  1  2     0.0000000000e+00
 3  1  3    -1.2706656841e+00
 3  2  1     0.0000000000e+00
 3  2  2     0.0000000000e+00
 3  2  3    -6.8609785970e-03
 3  3  1    -1.3617714683e+00
 3  3  2    -8.8275496094e-01
 3  3  3     0.0000000000e+00

   16
0.0000000000e+00 0.0000000000e+00 0.0000000000e+00
1.6591853370e+00 2.8737933060e+00 0.0000000000e+00
     1      1      2
 1  1  1     2.6220565602e-01
 1  1  2    -2.0989449298e-01
 1  1  3    -1.8812139116e-01
 1  2  1    -1.4809751826e-01
 1  2  2     1.2308038523e-01
 1  2  3    -4.7116134095e-02
 1  3  1    -2.8628341961e-01
 1  3  2    -7.3630343996e-02
 1  3  3     2.4749189445e-02
 2  1  1    -1.4809751826e-01
 2  1  2     1.2308038523e-01
 2  1  3    -4.7116134095e-02
 2  2  1     1.6044885264e-02
 2  2  2     3.7054251822e-01
 2  2  3    -1.3371636589e-01
 2  3  1    -7.3630343996e-02
 2  3  2    -2.0126242197e-01
 2  3  3     1.4288951198e-02
 3  1  1    -2.8628341961e-01
 3  1  2    -7.3630343996e-02
 3  1  3     2.4749189445e-02
 3  2  1    -7.3630343996e-02
 3  2  2    -2.0126242197e-01
 3  2  3     1.4288951198e-02
 3  3  1    -1.0931687223e-01
 3  3  2    -6.3114125652e-02
 3  3  3    -4.5679749847e-02

   17
0.0000000000e+00 0.0000000000e+00 0.0000000000e+00
1.6591853370e+00 2.8737933060e+00 0.0000000000e+00
     1      1      3
 1  1  1     2.6220565602e-01
 1  1  2    -2.0989449298e-01
 1  1  3     1.8812139116e-01
 1  2  1    -1.4809751826e-01
 1  2  2     1.2308038523e-01
 1  2  3     4.7116134095e-02
 1  3  1     2.8628341961e-01
 1  3  2     7.3630343996e-02
 1  3  3     2.4749189445e-02
 2  1  1    -1.4809751826e-01
 2  1  2     1.2308038523e-01
 2  1  3     4.7116134095e-02
 2  2  1     1.6044885264e-02
 2  2  2     3.7054251822e-01
 2  2  3     1.3371636589e-01
 2  3  1     7.3630343996e-02
 2  3  2     2.0126242197e-01
 2  3  3     1.4288951198e-02
 3  1  1     2.8628341961e-01
 3  1  2     7.3630343996e-02
 3  1  3     2.4749189445e-02
 3  2  1     7.3630343996e-02
 3  2  2     2.0126242197e-01
 3  2  3     1.4288951198e-02
 3  3  1    -1.0931687223e-01
 3  3  2    -6.3114125652e-02
 3  3  3     4.5679749847e-02

   18
0.0000000000e+00 0.0000000000e+00 0.0000000000e+00
4.9775560130e+00 2.8737933060e+00 0.0000000000e+00
     1      1      1
 1  1  1     1.1845651938e-01
 1  1  2     1.2906860579e-01
 1  1  3     0.0000000000e+00
 1  2  1    -3.1915044021e-03
 1  2  2    -3.6874903715e-02
 1  2  3     0.0000000000e+00
 1  3  1     0.0000000000e+00
 1  3  2     0.0000000000e+00
 1  3  3    -5.1177280746e-02
 2  1  1    -3.1915044021e-03
 2  1  2    -3.6874903715e-02
 2  1  3     0.0000000000e+00
 2  2  1     1.9220632692e-01
 2  2  2     5.0292672244e-02
 2  2  3     0.0000000000e+00
 2  3  1     0.0000000000e+00
 2  3  2     0.0000000000e+00
 2  3  3    -2.9547216835e-02
 3  1  1     0.0000000000e+00
 3  1  2     0.0000000000e+00
 3  1  3    -5.1177280746e-02
 3  2  1     0.0000000000e+00
 3  2  2     0.0000000000e+00
 3  2  3    -2.9547216835e-02
 3  3  1    -1.1433013250e-02
 3  3  2    -6.6008532824e-03
 3  3  3     0.0000000000e+00

   19
0.0000000000e+00 0.0000000000e+00 0.0000000000e+00
-4.9775560150e+00 2.8737933060e+00 0.0000000000e+00
     1      1      1
 1  1  1    -1.1845651947e-01
 1  1  2     1.2906860573e-01
 1  1  3     0.0000000000e+00
 1  2  1    -3.1915042940e-03
 1  2  2     3.6874903680e-02
 1  2  3     0.0000000000e+00
 1  3  1     0.0000000000e+00
 1  3  2     0.0000000000e+00
 1  3  3     5.1177280766e-02
 2  1  1    -3.1915042940e-03
 2  1  2     3.6874903680e-02
 2  1  3     0.0000000000e+00
 2  2  1    -1.9220632695e-01
 2  2  2     5.0292672244e-02
 2  2  3     0.0000000000e+00
 2  3  1     0.0000000000e+00
 2  3  2     0.0000000000e+00
 2  3  3    -2.9547216835e-02
 3  1  1     0.0000000000e+00
 3  1  2     0.0000000000e+00
 3  1  3     5.1177280766e-02
 3  2  1     0.0000000000e+00
 3  2  2     0.0000000000e+00
 3  2  3    -2.9547216835e-02
 3  3  1     1.1433013255e-02
 3  3  2    -6.6008532824e-03
 3  3  3     0.0000000000e+00

   20
0.0000000000e+00 0.0000000000e+00 0.0000000000e+00
-4.9775560150e+00 2.8737933060e+00 0.0000000000e+00
     1      1      2
 1  1  1    -2.6220565567e-01
 1  1  2    -2.0989449281e-01
 1  1  3    -1.8812139122e-01
 1  2  1    -1.4809751816e-01
 1  2  2    -1.2308038548e-01
 1  2  3     4.7116134188e-02
 1  3  1    -2.8628341972e-01
 1  3  2     7.3630344136e-02
 1  3  3    -2.4749189455e-02
 2  1  1    -1.4809751816e-01
 2  1  2    -1.2308038548e-01
 2  1  3     4.7116134188e-02
 2  2  1    -1.6044885522e-02
 2  2  2     3.7054251822e-01
 2  2  3    -1.3371636589e-01
 2  3  1     7.3630344136e-02
 2  3  2    -2.0126242197e-01
 2  3  3     1.4288951198e-02
 3  1  1    -2.8628341972e-01
 3  1  2     7.3630344136e-02
 3  1  3    -2.4749189455e-02
 3  2  1     7.3630344136e-02
 3  2  2    -2.0126242197e-01
 3  2  3     1.4288951198e-02
 3  3  1     1.0931687227e-01
 3  3  2    -6.3114125652e-02
 3  3  3    -4.5679749847e-02

   21
0.0000000000e+00 0.0000000000e+00 0.0000000000e+00
-4.9775560150e+00 2.8737933060e+00 0.0000000000e+00
     1      1      3
 1  1  1    -2.6220565567e-01
 1  1  2    -2.0989449281e-01
 1  1  3     1.8812139122e-01
 1  2  1    -1.4809751816e-01
 1  2  2    -1.2308038548e-01
 1  2  3    -4.7116134188e-02
 1  3  1     2.8628341972e-01
 1  3  2    -7.3630344136e-02
 1  3  3    -2.4749189455e-02
 2  1  1    -1.4809751816e-01
 2  1  2    -1.2308038548e-01
 2  1  3    -4.7116134188e-02
 2  2  1    -1.6044885522e-02
 2  2  2     3.7054251822e-01
 2  2  3     1.3371636589e-01
 2  3  1    -7.3630344136e-02
 2  3  2     2.0126242197e-01
 2  3  3     1.4288951198e-02
 3  1  1     2.8628341972e-01
 3  1  2    -7.3630344136e-02
 3  1  3    -2.4749189455e-02
 3  2  1    -7.3630344136e-02
 3  2  2     2.0126242197e-01
 3  2  3     1.4288951198e-02
 3  3  1     1.0931687227e-01
 3  3  2    -6.3114125652e-02
 3  3  3     4.5679749847e-02

   22
0.0000000000e+00 0.0000000000e+00 0.0000000000e+00
-3.3183706780e+00 5.7475866120e+00 0.0000000000e+00
     1      1      2
 1  1  1    -7.6801710354e-02
 1  1  2     4.3867687394e-02
 1  1  3     1.1038931049e-01
 1  2  1    -5.1154691222e-02
 1  2  2    -2.6430698911e-02
 1  2  3    -2.0375809337e-02
 1  3  1    -5.7297348585e-02
 1  3  2     7.7054403314e-02
 1  3  3    -1.0737355861e-01
 2  1  1    -5.1154691222e-02
 2  1  2    -2.6430698911e-02
 2  1  3    -2.0375809337e-02
 2  2  1     6.4122636361e-02
 2  2  2     5.7644236342e-02
 2  2  3     2.0380488735e-02
 2  3  1    -6.1354811041e-02
 2  3  2    -6.9263624372e-02
 2  3  3    -1.0187469127e-01
 3  1  1    -5.7297348585e-02
 3  1  2     7.7054403314e-02
 3  1  3    -1.0737355861e-01
 3  2  1    -6.1354811041e-02
 3  2  2    -6.9263624372e-02
 3  2  3    -1.0187469127e-01
 3  3  1    -1.3606241361e-01
 3  3  2     1.2031690165e-01
 3  3  3    -1.4878156539e-01

   23
0.0000000000e+00 0.0000000000e+00 0.0000000000e+00
-3.3183706780e+00 5.7475866120e+00 0.0000000000e+00
     1      1      3
 1  1  1    -7.6801710354e-02
 1  1  2     4.3867687394e-02
 1  1  3    -1.1038931049e-01
 1  2  1    -5.1154691222e-02
 1  2  2    -2.6430698911e-02
 1  2  3     2.0375809337e-02
 1  3  1     5.7297348585e-02
 1  3  2    -7.7054403314e-02
 1  3  3    -1.0737355861e-01
 2  1  1    -5.1154691222e-02
 2  1  2    -2.6430698911e-02
 2  1  3     2.0375809337e-02
 2  2  1     6.4122636361e-02
 2  2  2     5.7644236342e-02
 2  2  3    -2.0380488735e-02
 2  3  1     6.1354811041e-02
 2  3  2     6.9263624372e-02
 2  3  3    -1.0187469127e-01
 3  1  1     5.7297348585e-02
 3  1  2    -7.7054403314e-02
 3  1  3    -1.0737355861e-01
 3  2  1     6.1354811041e-02
 3  2  2     6.9263624372e-02
 3  2  3    -1.0187469127e-01
 3  3  1    -1.3606241361e-01
 3  3  2     1.2031690165e-01
 3  3  3     1.4878156539e-01

   24
0.0000000000e+00 0.0000000000e+00 0.0000000000e+00
-2.0000007206e-09 5.7475866120e+00 0.0000000000e+00
     1      1      1
 1  1  1     1.5582400519e-10
 1  1  2    -1.0254704719e-01
 1  1  3     0.0000000000e+00
 1  2  1    -1.7262943119e-01
 1  2  2    -5.8354699501e-11
 1  2  3     0.0000000000e+00
 1  3  1     0.0000000000e+00
 1  3  2     0.0000000000e+00
 1  3  3    -6.5143322062e-12
 2  1  1    -1.7262943119e-01
 2  1  2    -5.8354699501e-11
 2  1  3     0.0000000000e+00
 2  2  1    -5.8354699501e-11
 2  2  2     1.6769931729e-01
 2  2  3     0.0000000000e+00
 2  3  1     0.0000000000e+00
 2  3  2     0.0000000000e+00
 2  3  3     1.8720841216e-02
 3  1  1     0.0000000000e+00
 3  1  2     0.0000000000e+00
 3  1  3    -6.5143322062e-12
 3  2  1     0.0000000000e+00
 3  2  2     0.0000000000e+00
 3  2  3     1.8720841216e-02
 3  3  1     1.4490743272e-11
 3  3  2    -4.1643394185e-02
 3  3  3     0.0000000000e+00

   25
0.0000000000e+00 0.0000000000e+00 0.0000000000e+00
-2.0000001655e-09 5.7475866120e+00 0.0000000000e+00
     1      1      2
 1  1  1     7.6801710394e-02
 1  1  2     4.3867687357e-02
 1  1  3     1.1038931046e-01
 1  2  1    -5.1154691196e-02
 1  2  2     2.6430698871e-02
 1  2  3     2.0375809323e-02
 1  3  1    -5.7297348574e-02
 1  3  2    -7.7054403265e-02
 1  3  3     1.0737355868e-01
 2  1  1    -5.1154691196e-02
 2  1  2     2.6430698871e-02
 2  1  3     2.0375809323e-02
 2  2  1    -6.4122636401e-02
 2  2  2     5.7644236342e-02
 2  2  3     2.0380488735e-02
 2  3  1     6.1354811089e-02
 2  3  2    -6.9263624372e-02
 2  3  3    -1.0187469127e-01
 3  1  1    -5.7297348574e-02
 3  1  2    -7.7054403265e-02
 3  1  3     1.0737355868e-01
 3  2  1     6.1354811089e-02
 3  2  2    -6.9263624372e-02
 3  2  3    -1.0187469127e-01
 3  3  1     1.3606241353e-01
 3  3  2     1.2031690165e-01
 3  3  3    -1.4878156539e-01

   26
0.0000000000e+00 0.0000000000e+00 0.0000000000e+00
-2.0000001655e-09 5.7475866120e+00 0.0000000000e+00
     1      1      3
 1  1  1     7.6801710394e-02
 1  1  2     4.3867687357e-02
 1  1  3    -1.1038931046e-01
 1  2  1    -5.1154691196e-02
 1  2  2     2.6430698871e-02
 1  2  3    -2.0375809323e-02
 1  3  1     5.7297348574e-02
 1  3  2     7.7054403265e-02
 1  3  3     1.0737355868e-01
 2  1  1    -5.1154691196e-02
 2  1  2     2.6430698871e-02
 2  1  3    -2.0375809323e-02
 2  2  1    -6.4122636401e-02
 2  2  2     5.7644236342e-02
 2  2  3    -2.0380488735e-02
 2  3  1    -6.1354811089e-02
 2  3  2     6.9263624372e-02
 2  3  3    -1.0187469127e-01
 3  1  1     5.7297348574e-02
 3  1  2     7.7054403265e-02
 3  1  3     1.0737355868e-01
 3  2  1    -6.1354811089e-02
 3  2  2     6.9263624372e-02
 3  2  3    -1.0187469127e-01
 3  3  1     1.3606241353e-01
 3  3  2     1.2031690165e-01
 3  3  3     1.4878156539e-01

   27
0.0000000000e+00 0.0000000000e+00 0.0000000000e+00
2.0000001655e-09 -5.7475866120e+00 0.0000000000e+00
     1      1      1
 1  1  1     2.8703221796e-11
 1  1  2    -2.0384251787e-01
 1  1  3     0.0000000000e+00
 1  2  1     6.0677702348e-02
 1  2  2     5.3893995720e-11
 1  2  3     0.0000000000e+00
 1  3  1     0.0000000000e+00
 1  3  2     0.0000000000e+00
 1  3  3    -2.0563220922e-11
 2  1  1     6.0677702348e-02
 2  1  2     5.3893994665e-11
 2  1  3     0.0000000000e+00
 2  2  1     5.3893925654e-11
 2  2  2    -1.5488003819e-01
 2  2  3     0.0000000000e+00
 2  3  1     0.0000000000e+00
 2  3  2     0.0000000000e+00
 2  3  3     5.9094433671e-02
 3  1  1     0.0000000000e+00
 3  1  2     0.0000000000e+00
 3  1  3    -2.0563220482e-11
 3  2  1     0.0000000000e+00
 3  2  2     0.0000000000e+00
 3  2  3     5.9094433671e-02
 3  3  1    -4.5938269643e-12
 3  3  2     1.3201706565e-02
 3  3  3     0.0000000000e+00

   28
0.0000000000e+00 0.0000000000e+00 0.0000000000e+00
1.6591853390e+00 -2.8737933060e+00 0.0000000000e+00
     1      1      1
 1  1  1    -1.2670660158e+00
 1  1  2     5.9882239802e-01
 1  1  3     0.0000000000e+00
 1  2  1     2.1143481216e+00
 1  2  2    -1.3980711275e+00
 1  2  3     0.0000000000e+00
 1  3  1     0.0000000000e+00
 1  3  2     0.0000000000e+00
 1  3  3     6.2939105992e-01
 2  1  1     2.1143481216e+00
 2  1  2    -1.3980711275e+00
 2  1  3     0.0000000000e+00
 2  2  1    -2.8662530513e+00
 2  2  2     1.9862215664e+00
 2  2  3     0.0000000000e+00
 2  3  1     0.0000000000e+00
 2  3  2     0.0000000000e+00
 2  3  3     1.1038592520e+00
 3  1  1     0.0000000000e+00
 3  1  2     0.0000000000e+00
 3  1  3     6.2939105992e-01
 3  2  1     0.0000000000e+00
 3  2  2     0.0000000000e+00
 3  2  3     1.1038592520e+00
 3  3  1    -8.3602487353e-02
 3  3  2     1.6207061671e+00
 3  3  3     0.0000000000e+00

   29
0.0000000000e+00 0.0000000000e+00 0.0000000000e+00
1.6591853390e+00 -2.8737933060e+00 0.0000000000e+00
     1      1      2
 1  1  1     1.9410782330e-02
 1  1  2    -2.9000423596e-02
 1  1  3     2.5236725641e-02
 1  2  1    -5.9910723053e-02
 1  2  2    -6.5406876059e-02
 1  2  3     2.8787058420e-02
 1  3  1    -5.9473932535e-02
 1  3  2    -6.0098159712e-02
 1  3  3    -1.4191284991e-01
 2  1  1    -5.9910723053e-02
 2  1  2    -6.5406876059e-02
 2  1  3     2.8787058420e-02
 2  2  1     6.2161585400e-02
 2  2  2    -3.2735938454e-02
 2  2  3     1.0553307363e-01
 2  3  1     7.8311054642e-02
 2  3  2    -6.7087040421e-02
 2  3  3    -4.2050883892e-02
 3  1  1    -5.9473932535e-02
 3  1  2    -6.0098159712e-02
 3  1  3    -1.4191284991e-01
 3  2  1     7.8311054642e-02
 3  2  2    -6.7087040421e-02
 3  2  3    -4.2050883892e-02
 3  3  1     3.6166286558e-02
 3  3  2    -1.7799195753e-01
 3  3  3    -1.4878156539e-01

   30
0.0000000000e+00 0.0000000000e+00 0.0000000000e+00
1.6591853390e+00 -2.8737933060e+00 0.0000000000e+00
     1      1      3
 1  1  1     1.9410782330e-02
 1  1  2    -2.9000423596e-02
 1  1  3    -2.5236725641e-02
 1  2  1    -5.9910723053e-02
 1  2  2    -6.5406876059e-02
 1  2  3    -2.8787058420e-02
 1  3  1     5.9473932535e-02
 1  3  2     6.0098159712e-02
 1  3  3    -1.4191284991e-01
 2  1  1    -5.9910723053e-02
 2  1  2    -6.5406876059e-02
 2  1  3    -2.8787058420e-02
 2  2  1     6.2161585400e-02
 2  2  2    -3.2735938454e-02
 2  2  3    -1.0553307363e-01
 2  3  1    -7.8311054642e-02
 2  3  2     6.7087040421e-02
 2  3  3    -4.2050883892e-02
 3  1  1     5.9473932535e-02
 3  1  2     6.0098159712e-02
 3  1  3    -1.4191284991e-01
 3  2  1    -7.8311054642e-02
 3  2  2     6.7087040421e-02
 3  2  3    -4.2050883892e-02
 3  3  1     3.6166286558e-02
 3  3  2    -1.7799195753e-01
 3  3  3     1.4878156539e-01

   31
0.0000000000e+00 0.0000000000e+00 0.0000000000e+00
4.9775560150e+00 -2.8737933060e+00 0.0000000000e+00
     1      1      1
 1  1  1     1.1971078366e-02
 1  1  2    -1.7954093640e-01
 1  1  3     0.0000000000e+00
 1  2  1    -1.4449974443e-01
 1  2  2    -1.6240682290e-02
 1  2  3     0.0000000000e+00
 1  3  1     0.0000000000e+00
 1  3  2     0.0000000000e+00
 1  3  3     1.6212724069e-02
 2  1  1    -1.4449974443e-01
 2  1  2    -1.6240682290e-02
 2  1  3     0.0000000000e+00
 2  2  1     4.4452442641e-02
 2  2  2     1.4696480159e-01
 2  2  3     0.0000000000e+00
 2  3  1     0.0000000000e+00
 2  3  2     0.0000000000e+00
 2  3  3    -9.3604206082e-03
 3  1  1     0.0000000000e+00
 3  1  2     0.0000000000e+00
 3  1  3     1.6212724069e-02
 3  2  1     0.0000000000e+00
 3  2  2     0.0000000000e+00
 3  2  3    -9.3604206082e-03
 3  3  1    -3.6064237253e-02
 3  3  2     2.0821697092e-02
 3  3  3     0.0000000000e+00

   32
0.0000000000e+00 0.0000000000e+00 0.0000000000e+00
-4.9775560130e+00 -2.8737933060e+00 0.0000000000e+00
     1      1      1
 1  1  1    -1.1971078040e-02
 1  1  2    -1.7954093643e-01
 1  1  3     0.0000000000e+00
 1  2  1    -1.4449974441e-01
 1  2  2     1.6240682187e-02
 1  2  3     0.0000000000e+00
 1  3  1     0.0000000000e+00
 1  3  2     0.0000000000e+00
 1  3  3    -1.6212724062e-02
 2  1  1    -1.4449974441e-01
 2  1  2     1.6240682187e-02
 2  1  3     0.0000000000e+00
 2  2  1    -4.4452442743e-02
 2  2  2     1.4696480159e-01
 2  2  3     0.0000000000e+00
 2  3  1     0.0000000000e+00
 2  3  2     0.0000000000e+00
 2  3  3    -9.3604206082e-03
 3  1  1     0.0000000000e+00
 3  1  2     0.0000000000e+00
 3  1  3    -1.6212724062e-02
 3  2  1     0.0000000000e+00
 3  2  2     0.0000000000e+00