   0.33065E+01   0.20612E-02   0.20612E-02   0.20600E-02   0.20600E-02
   0.66130E+01   0.19259E-02   0.19259E-02   0.19239E-02   0.19239E-02
   0.99194E+01   0.21034E-02   0.21034E-02   0.21010E-02   0.21010E-02
   0.13226E+02   0.24124E-02   0.24124E-02   0.24093E-02   0.24093E-02
   0.16532E+02   0.23529E-02   0.23529E-02   0.23495E-02   0.23495E-02
   0.19839E+02   0.28115E-02   0.28115E-02   0.28073E-02   0.28073E-02
   0.23145E+02   0.80277E-02   0.80277E-02   0.80222E-02   0.80222E-02
   0.26452E+02   0.63811E-02   0.63811E-02   0.63844E-02   0.63844E-02
   0.29758E+02   0.59254E-02   0.59254E-02   0.59319E-02   0.59319E-02
   0.33065E+02   0.57356E-02   0.57356E-02   0.57454E-02   0.57454E-02
   0.36371E+02   0.58355E-02   0.58355E-02   0.58468E-02   0.58468E-02
   0.39678E+02   0.57279E-02   0.57279E-02   0.57415E-02   0.57415E-02
   0.42984E+02   0.60837E-02   0.60837E-02   0.61013E-02   0.61013E-02
   0.46291E+02   0.64314E-02   0.64314E-02   0.64530E-02   0.64530E-02
   0.49597E+02   0.64992E-02   0.64992E-02   0.65248E-02   0.65248E-02
   0.52904E+02   0.69814E-02   0.69814E-02   0.70107E-02   0.70107E-02
   0.56210E+02   0.69702E-02   0.69702E-02   0.70040E-02   0.70040E-02
   0.59517E+02   0.75091E-02   0.75091E-02   0.75480E-02   0.75480E-02
   0.62823E+02   0.76848E-02   0.76848E-02   0.77298E-02   0.77298E-02
   0.66130E+02   0.80389E-02   0.80389E-02   0.80917E-02   0.80917E-02
   0.69436E+02   0.86692E-02   0.86692E-02   0.87300E-02   0.87300E-02
   0.72743E+02   0.86503E-02   0.86503E-02   0.87240E-02   0.87240E-02
   0.76049E+02   0.97163E-02   0.97163E-02   0.98022E-02   0.98022E-02
   0.79356E+02   0.10109E-01   0.10109E-01   0.10215E-01   0.10215E-01
   0.82662E+02   0.10873E-01   0.10873E-01   0.11011E-01   0.11011E-01
   0.85969E+02   0.13642E-01   0.13642E-01   0.13834E-01   0.13834E-01
   0.89275E+02   0.15854E-01   0.15854E-01   0.16391E-01   0.16391E-01
   0.92581E+02   0.75690E-02   0.75690E-02   0.77362E-02   0.77362E-02
   0.95888E+02   0.60915E-02   0.60915E-02   0.62342E-02   0.62342E-02
   0.99194E+02   0.49825E-02   0.49825E-02   0.51482E-02   0.51482E-02
   0.10250E+03   0.54901E-02   0.54901E-02   0.54810E-02   0.54810E-02
   0.10581E+03   0.70935E-02   0.70935E-02   0.69507E-02   0.69507E-02
   0.10911E+03   0.85672E-02   0.85672E-02   0.83949E-02   0.83949E-02
   0.11242E+03   0.10840E-01   0.10840E-01   0.10663E-01   0.10663E-01
   0.11573E+03   0.14127E-01   0.14127E-01   0.13905E-01   0.13905E-01
   0.11903E+03   0.24659E-01   0.24659E-01   0.24206E-01   0.24206E-01
   0.12234E+03   0.19864E-01   0.19864E-01   0.19602E-01   0.19602E-01
   0.12565E+03   0.16667E-01   0.16667E-01   0.16475E-01   0.16475E-01
   0.12895E+03   0.15281E-01   0.15281E-01   0.15129E-01   0.15129E-01
   0.13226E+03   0.14921E-01   0.14921E-01   0.14792E-01   0.14792E-01
   0.13557E+03   0.14451E-01   0.14451E-01   0.14339E-01   0.14339E-01
   0.13887E+03   0.13742E-01   0.13742E-01   0.13651E-01   0.13651E-01
   0.14218E+03   0.13841E-01   0.13841E-01   0.13758E-01   0.13758E-01
   0.14549E+03   0.14300E-01   0.14300E-01   0.14229E-01   0.14229E-01
   0.14879E+03   0.14080E-01   0.14080E-01   0.14021E-01   0.14021E-01
   0.15210E+03   0.14726E-01   0.14726E-01   0.14674E-01   0.14674E-01
   0.15540E+03   0.15302E-01   0.15302E-01   0.15259E-01   0.15259E-01
   0.15871E+03   0.15066E-01   0.15066E-01   0.15038E-01   0.15038E-01
   0.16202E+03   0.16357E-01   0.16357E-01   0.16344E-01   0.16344E-01
   0.16532E+03   0.16843E-01   0.16843E-01   0.16847E-01   0.16847E-01
   0.16863E+03   0.50127E-02   0.50127E-02   0.49964E-02   0.49964E-02
   0.17194E+03   0.49910E-02   0.49910E-02   0.49725E-02   0.49725E-02
   0.17524E+03   0.50335E-02   0.50335E-02   0.50159E-02   0.50159E-02
   0.17855E+03   0.46980E-02   0.46980E-02   0.46846E-02   0.46846E-02
   0.18186E+03   0.45845E-02   0.45845E-02   0.45716E-02   0.45716E-02
   0.18516E+03   0.47843E-02   0.47843E-02   0.47714E-02   0.47714E-02
   0.18847E+03   0.46087E-02   0.46087E-02   0.46020E-02   0.46020E-02
   0.19178E+03   0.36376E-02   0.36376E-02   0.36479E-02   0.36479E-02
   0.19508E+03   0.37466E-02   0.37466E-02   0.37582E-02   0.37582E-02
   0.19839E+03   0.39214E-02   0.39214E-02   0.39346E-02   0.39346E-02
   0.20170E+03   0.41211E-02   0.41211E-02   0.41364E-02   0.41364E-02
   0.20500E+03   0.43468E-02   0.43468E-02   0.43648E-02   0.43648E-02
   0.20831E+03   0.46609E-02   0.46609E-02   0.46828E-02   0.46828E-02
   0.21161E+03   0.50186E-02   0.50186E-02   0.50461E-02   0.50461E-02
   0.21492E+03   0.55442E-02   0.55442E-02   0.55805E-02   0.55805E-02
   0.21823E+03   0.58435E-02   0.58435E-02   0.58909E-02   0.58909E-02
   0.22153E+03   0.65281E-02   0.65281E-02   0.66000E-02   0.66000E-02
   0.22484E+03   0.70370E-02   0.70370E-02   0.71633E-02   0.71633E-02
   0.22815E+03   0.59976E-02   0.59976E-02   0.60924E-02   0.60924E-02
   0.23145E+03   0.59175E-02   0.59175E-02   0.59867E-02   0.59867E-02
   0.23476E+03   0.55498E-02   0.55498E-02   0.55979E-02   0.55979E-02
   0.23807E+03   0.54859E-02   0.54859E-02   0.55208E-02   0.55208E-02
   0.24137E+03   0.55107E-02   0.55107E-02   0.55501E-02   0.55501E-02
   0.24468E+03   0.13035E-01   0.13035E-01   0.13153E-01   0.13153E-01
   0.24799E+03   0.14306E-01   0.14306E-01   0.14430E-01   0.14430E-01
   0.25129E+03   0.16945E-01   0.16945E-01   0.16426E-01   0.16426E-01
   0.25460E+03   0.19798E-01   0.19798E-01   0.19749E-01   0.19749E-01
   0.25791E+03   0.40483E-01   0.40483E-01   0.40598E-01   0.40598E-01
   0.26121E+03   0.22558E-01   0.22558E-01   0.22587E-01   0.22587E-01
   0.26452E+03   0.17244E-01   0.17244E-01   0.17251E-01   0.17251E-01
   0.26783E+03   0.15674E-01   0.15674E-01   0.15675E-01   0.15675E-01
   0.27113E+03   0.14868E-01   0.14868E-01   0.14866E-01   0.14866E-01
   0.27444E+03   0.14125E-01   0.14125E-01   0.14121E-01   0.14121E-01
   0.27774E+03   0.13353E-01   0.13353E-01   0.13348E-01   0.13348E-01
   0.28105E+03   0.12246E-01   0.12246E-01   0.12240E-01   0.12240E-01
   0.28436E+03   0.12141E-01   0.12141E-01   0.12131E-01   0.12131E-01
   0.28766E+03   0.13005E-01   0.13005E-01   0.12993E-01   0.12993E-01
   0.29097E+03   0.13355E-01   0.13355E-01   0.13337E-01   0.13337E-01
   0.29428E+03   0.13504E-01   0.13504E-01   0.13489E-01   0.13489E-01
   0.29758E+03   0.16627E-01   0.16627E-01   0.16612E-01   0.16612E-01
   0.30089E+03   0.12058E-04   0.12058E-04   0.12058E-04   0.12058E-04
   0.30420E+03   0.00000E+00   0.00000E+00   0.00000E+00   0.00000E+00
   0.30750E+03   0.00000E+00   0.00000E+00   0.00000E+00   0.00000E+00
   0.31081E+03   0.00000E+00   0.00000E+00   0.00000E+00   0.00000E+00
   0.31412E+03   0.00000E+00   0.00000E+00   0.00000E+00   0.00000E+00
   0.31742E+03   0.00000E+00   0.00000E+00   0.00000E+00   0.00000E+00
   0.32073E+03   0.00000E+00   0.00000E+00   0.00000E+00   0.00000E+00
   0.32404E+03   0.00000E+00   0.00000E+00   0.00000E+00   0.00000E+00
   0.32734E+03   0.00000E+00   0.00000E+00   0.00000E+00   0.00000E+00
   0.33065E+03   0.00000E+00   0.00000E+00   0.00000E+00   0.00000E+00
