   0.31925E+01   0.10239E-02   0.10239E-02   0.10237E-02   0.10237E-02
   0.63849E+01   0.16262E-02   0.16262E-02   0.16253E-02   0.16253E-02
   0.95774E+01   0.20212E-02   0.20212E-02   0.20197E-02   0.20197E-02
   0.12770E+02   0.22409E-02   0.22409E-02   0.22387E-02   0.22387E-02
   0.15962E+02   0.24127E-02   0.24127E-02   0.24100E-02   0.24100E-02
   0.19155E+02   0.25611E-02   0.25611E-02   0.25579E-02   0.25579E-02
   0.22347E+02   0.90831E-02   0.90831E-02   0.90589E-02   0.90589E-02
   0.25540E+02   0.63992E-02   0.63992E-02   0.63942E-02   0.63942E-02
   0.28732E+02   0.59765E-02   0.59765E-02   0.59766E-02   0.59766E-02
   0.31925E+02   0.58838E-02   0.58838E-02   0.58872E-02   0.58872E-02
   0.35117E+02   0.59188E-02   0.59188E-02   0.59248E-02   0.59248E-02
   0.38309E+02   0.60113E-02   0.60113E-02   0.60198E-02   0.60198E-02
   0.41502E+02   0.61437E-02   0.61437E-02   0.61548E-02   0.61548E-02
   0.44694E+02   0.63122E-02   0.63122E-02   0.63260E-02   0.63260E-02
   0.47887E+02   0.65059E-02   0.65059E-02   0.65228E-02   0.65228E-02
   0.51079E+02   0.67188E-02   0.67188E-02   0.67390E-02   0.67390E-02
   0.54272E+02   0.69493E-02   0.69493E-02   0.69733E-02   0.69733E-02
   0.57464E+02   0.72089E-02   0.72089E-02   0.72372E-02   0.72372E-02
   0.60657E+02   0.75022E-02   0.75022E-02   0.75359E-02   0.75359E-02
   0.63849E+02   0.78124E-02   0.78124E-02   0.78519E-02   0.78519E-02
   0.67041E+02   0.81663E-02   0.81663E-02   0.82128E-02   0.82128E-02
   0.70234E+02   0.85489E-02   0.85489E-02   0.86039E-02   0.86039E-02
   0.73426E+02   0.90147E-02   0.90147E-02   0.90803E-02   0.90803E-02
   0.76619E+02   0.95220E-02   0.95220E-02   0.96006E-02   0.96006E-02
   0.79811E+02   0.10179E-01   0.10179E-01   0.10275E-01   0.10275E-01
   0.83004E+02   0.11082E-01   0.11082E-01   0.11202E-01   0.11202E-01
   0.86196E+02   0.12519E-01   0.12519E-01   0.12676E-01   0.12676E-01
   0.89389E+02   0.16764E-01   0.16764E-01   0.16964E-01   0.16964E-01
   0.92581E+02   0.11208E-01   0.11208E-01   0.11519E-01   0.11519E-01
   0.95774E+02   0.75631E-02   0.75631E-02   0.77087E-02   0.77087E-02
   0.98966E+02   0.63204E-02   0.63204E-02   0.64296E-02   0.64296E-02
   0.10216E+03   0.54750E-02   0.54750E-02   0.55824E-02   0.55824E-02
   0.10535E+03   0.63162E-02   0.63162E-02   0.61865E-02   0.61865E-02
   0.10854E+03   0.79621E-02   0.79621E-02   0.78215E-02   0.78215E-02
   0.11174E+03   0.99368E-02   0.99368E-02   0.97749E-02   0.97749E-02
   0.11493E+03   0.12599E-01   0.12599E-01   0.12405E-01   0.12405E-01
   0.11812E+03   0.17038E-01   0.17038E-01   0.16770E-01   0.16770E-01
   0.12131E+03   0.28091E-01   0.28091E-01   0.27414E-01   0.27414E-01
   0.12451E+03   0.18663E-01   0.18663E-01   0.18417E-01   0.18417E-01
   0.12770E+03   0.16643E-01   0.16643E-01   0.16456E-01   0.16456E-01
   0.13089E+03   0.15636E-01   0.15636E-01   0.15483E-01   0.15483E-01
   0.13408E+03   0.14974E-01   0.14974E-01   0.14847E-01   0.14847E-01
   0.13728E+03   0.14622E-01   0.14622E-01   0.14513E-01   0.14513E-01
   0.14047E+03   0.14390E-01   0.14390E-01   0.14295E-01   0.14295E-01
   0.14366E+03   0.14411E-01   0.14411E-01   0.14329E-01   0.14329E-01
   0.14685E+03   0.14445E-01   0.14445E-01   0.14375E-01   0.14375E-01
   0.15005E+03   0.14563E-01   0.14563E-01   0.14504E-01   0.14504E-01
   0.15324E+03   0.14906E-01   0.14906E-01   0.14861E-01   0.14861E-01
   0.15643E+03   0.15427E-01   0.15427E-01   0.15389E-01   0.15389E-01
   0.15962E+03   0.16195E-01   0.16195E-01   0.16170E-01   0.16170E-01
   0.16282E+03   0.17141E-01   0.17141E-01   0.17132E-01   0.17132E-01
   0.16601E+03   0.63680E-02   0.63680E-02   0.63473E-02   0.63473E-02
   0.16920E+03   0.51638E-02   0.51638E-02   0.51438E-02   0.51438E-02
   0.17239E+03   0.51180E-02   0.51180E-02   0.50987E-02   0.50987E-02
   0.17558E+03   0.50933E-02   0.50933E-02   0.50751E-02   0.50751E-02
   0.17878E+03   0.50571E-02   0.50571E-02   0.50403E-02   0.50403E-02
   0.18197E+03   0.50392E-02   0.50392E-02   0.50240E-02   0.50240E-02
   0.18516E+03   0.50220E-02   0.50220E-02   0.50092E-02   0.50092E-02
   0.18835E+03   0.39908E-02   0.39908E-02   0.40013E-02   0.40013E-02
   0.19155E+03   0.40779E-02   0.40779E-02   0.40926E-02   0.40926E-02
   0.19474E+03   0.43105E-02   0.43105E-02   0.43275E-02   0.43275E-02
   0.19793E+03   0.45611E-02   0.45611E-02   0.45811E-02   0.45811E-02
   0.20112E+03   0.48569E-02   0.48569E-02   0.48810E-02   0.48810E-02
   0.20432E+03   0.51921E-02   0.51921E-02   0.52221E-02   0.52221E-02
   0.20751E+03   0.55835E-02   0.55835E-02   0.56221E-02   0.56221E-02
   0.21070E+03   0.60259E-02   0.60259E-02   0.60777E-02   0.60777E-02
   0.21389E+03   0.65763E-02   0.65763E-02   0.66520E-02   0.66520E-02
   0.21709E+03   0.72997E-02   0.72997E-02   0.74407E-02   0.74407E-02
   0.22028E+03   0.62708E-02   0.62708E-02   0.63482E-02   0.63482E-02
   0.22347E+03   0.62840E-02   0.62840E-02   0.63504E-02   0.63504E-02
   0.22666E+03   0.65298E-02   0.65298E-02   0.65961E-02   0.65961E-02
   0.22986E+03   0.67179E-02   0.67179E-02   0.67688E-02   0.67688E-02
   0.23305E+03   0.13641E-01   0.13641E-01   0.13691E-01   0.13691E-01
   0.23624E+03   0.14705E-01   0.14705E-01   0.14846E-01   0.14846E-01
   0.23943E+03   0.17170E-01   0.17170E-01   0.17284E-01   0.17284E-01
   0.24263E+03   0.20636E-01   0.20636E-01   0.20583E-01   0.20583E-01
   0.24582E+03   0.34608E-01   0.34608E-01   0.34603E-01   0.34603E-01
   0.24901E+03   0.22101E-01   0.22101E-01   0.22086E-01   0.22086E-01
   0.25220E+03   0.18561E-01   0.18561E-01   0.18549E-01   0.18549E-01
   0.25540E+03   0.16611E-01   0.16611E-01   0.16600E-01   0.16600E-01
   0.25859E+03   0.15375E-01   0.15375E-01   0.15364E-01   0.15364E-01
   0.26178E+03   0.14487E-01   0.14487E-01   0.14475E-01   0.14475E-01
   0.26497E+03   0.13815E-01   0.13815E-01   0.13804E-01   0.13804E-01
   0.26817E+03   0.13252E-01   0.13252E-01   0.13241E-01   0.13241E-01
   0.27136E+03   0.12866E-01   0.12866E-01   0.12854E-01   0.12854E-01
   0.27455E+03   0.12700E-01   0.12700E-01   0.12687E-01   0.12687E-01
   0.27774E+03   0.12704E-01   0.12704E-01   0.12686E-01   0.12686E-01
   0.28094E+03   0.13072E-01   0.13072E-01   0.13049E-01   0.13049E-01
   0.28413E+03   0.13502E-01   0.13502E-01   0.13483E-01   0.13483E-01
   0.28732E+03   0.18527E-01   0.18527E-01   0.18509E-01   0.18509E-01
   0.29051E+03   0.49221E-04   0.49221E-04   0.49221E-04   0.49221E-04
   0.29371E+03   0.00000E+00   0.00000E+00   0.00000E+00   0.00000E+00
   0.29690E+03   0.00000E+00   0.00000E+00   0.00000E+00   0.00000E+00
   0.30009E+03   0.00000E+00   0.00000E+00   0.00000E+00   0.00000E+00
   0.30328E+03   0.00000E+00   0.00000E+00   0.00000E+00   0.00000E+00
   0.30648E+03   0.00000E+00   0.00000E+00   0.00000E+00   0.00000E+00
   0.30967E+03   0.00000E+00   0.00000E+00   0.00000E+00   0.00000E+00
   0.31286E+03   0.00000E+00   0.00000E+00   0.00000E+00   0.00000E+00
   0.31605E+03   0.00000E+00   0.00000E+00   0.00000E+00   0.00000E+00
   0.31925E+03   0.00000E+00   0.00000E+00   0.00000E+00   0.00000E+00
