 1046

    1
0.0000000000e+00 0.0000000000e+00 0.0000000000e+00
0.0000000000e+00 0.0000000000e+00 0.0000000000e+00
     1      1      1
 1  1  1     0.0000000000e+00
 1  1  2     0.0000000000e+00
 1  1  3     0.0000000000e+00
 1  2  1     0.0000000000e+00
 1  2  2     0.0000000000e+00
 1  2  3     0.0000000000e+00
 1  3  1     0.0000000000e+00
 1  3  2     0.0000000000e+00
 1  3  3     0.0000000000e+00
 2  1  1     0.0000000000e+00
 2  1  2     0.0000000000e+00
 2  1  3     0.0000000000e+00
 2  2  1     0.0000000000e+00
 2  2  2     0.0000000000e+00
 2  2  3     0.0000000000e+00
 2  3  1     0.0000000000e+00
 2  3  2     0.0000000000e+00
 2  3  3     0.0000000000e+00
 3  1  1     0.0000000000e+00
 3  1  2     0.0000000000e+00
 3  1  3     0.0000000000e+00
 3  2  1     0.0000000000e+00
 3  2  2     0.0000000000e+00
 3  2  3     0.0000000000e+00
 3  3  1     0.0000000000e+00
 3  3  2     0.0000000000e+00
 3  3  3     0.0000000000e+00

    2
0.0000000000e+00 0.0000000000e+00 0.0000000000e+00
0.0000000000e+00 0.0000000000e+00 0.0000000000e+00
     1      1      2
 1  1  1     4.2302459541e-03
 1  1  2     3.8593527187e-02
 1  1  3     3.8593527187e-02
 1  2  1     3.3703829933e-02
 1  2  2    -3.3703829933e-02
 1  2  3    -4.2323899649e-02
 1  3  1     3.3703829933e-02
 1  3  2    -4.2323899649e-02
 1  3  3    -3.3703829933e-02
 2  1  1     3.3703829933e-02
 2  1  2    -3.3703829933e-02
 2  1  3    -4.2323899649e-02
 2  2  1    -3.8593527187e-02
 2  2  2    -4.2302459541e-03
 2  2  3     3.8593527187e-02
 2  3  1    -4.2323899649e-02
 2  3  2     3.3703829933e-02
 2  3  3     3.3703829933e-02
 3  1  1     3.3703829933e-02
 3  1  2    -4.2323899649e-02
 3  1  3    -3.3703829933e-02
 3  2  1    -4.2323899649e-02
 3  2  2     3.3703829933e-02
 3  2  3     3.3703829933e-02
 3  3  1    -3.8593527187e-02
 3  3  2     3.8593527187e-02
 3  3  3    -4.2302459541e-03

    3
0.0000000000e+00 0.0000000000e+00 0.0000000000e+00
-2.4189880960e+00 0.0000000000e+00 2.4189880960e+00
     1      1      1
 1  1  1     1.3562569705e-01
 1  1  2     0.0000000000e+00
 1  1  3    -2.6107610990e-01
 1  2  1     0.0000000000e+00
 1  2  2    -1.0804961706e-01
 1  2  3     0.0000000000e+00
 1  3  1    -2.8975723215e-01
 1  3  2     0.0000000000e+00
 1  3  3     2.8975723215e-01
 2  1  1     0.0000000000e+00
 2  1  2    -1.0804961706e-01
 2  1  3     0.0000000000e+00
 2  2  1    -8.9738845031e-02
 2  2  2     0.0000000000e+00
 2  2  3     8.9738845031e-02
 2  3  1     0.0000000000e+00
 2  3  2     1.0804961706e-01
 2  3  3     0.0000000000e+00
 3  1  1    -2.8975723215e-01
 3  1  2     0.0000000000e+00
 3  1  3     2.8975723215e-01
 3  2  1     0.0000000000e+00
 3  2  2     1.0804961706e-01
 3  2  3     0.0000000000e+00
 3  3  1     2.6107610990e-01
 3  3  2     0.0000000000e+00
 3  3  3    -1.3562569705e-01

    4
0.0000000000e+00 0.0000000000e+00 0.0000000000e+00
4.8379761920e+00 0.0000000000e+00 -4.8379761920e+00
     1      1      2
 1  1  1    -4.2302459541e-03
 1  1  2     3.8593527187e-02
 1  1  3    -3.8593527187e-02
 1  2  1     3.3703829933e-02
 1  2  2     3.3703829933e-02
 1  2  3    -4.2323899649e-02
 1  3  1    -3.3703829933e-02
 1  3  2    -4.2323899649e-02
 1  3  3     3.3703829933e-02
 2  1  1     3.3703829933e-02
 2  1  2     3.3703829933e-02
 2  1  3    -4.2323899649e-02
 2  2  1     3.8593527187e-02
 2  2  2    -4.2302459541e-03
 2  2  3    -3.8593527187e-02
 2  3  1    -4.2323899649e-02
 2  3  2    -3.3703829933e-02
 2  3  3     3.3703829933e-02
 3  1  1    -3.3703829933e-02
 3  1  2    -4.2323899649e-02
 3  1  3     3.3703829933e-02
 3  2  1    -4.2323899649e-02
 3  2  2    -3.3703829933e-02
 3  2  3     3.3703829933e-02
 3  3  1     3.8593527187e-02
 3  3  2     3.8593527187e-02
 3  3  3     4.2302459541e-03

    5
0.0000000000e+00 0.0000000000e+00 0.0000000000e+00
2.4189880960e+00 0.0000000000e+00 -2.4189880960e+00
     1      1      1
 1  1  1    -1.3562569705e-01
 1  1  2     0.0000000000e+00
 1  1  3     2.6107610990e-01
 1  2  1     0.0000000000e+00
 1  2  2     1.0804961706e-01
 1  2  3     0.0000000000e+00
 1  3  1     2.8975723215e-01
 1  3  2     0.0000000000e+00
 1  3  3    -2.8975723215e-01
 2  1  1     0.0000000000e+00
 2  1  2     1.0804961706e-01
 2  1  3     0.0000000000e+00
 2  2  1     8.9738845031e-02
 2  2  2     0.0000000000e+00
 2  2  3    -8.9738845031e-02
 2  3  1     0.0000000000e+00
 2  3  2    -1.0804961706e-01
 2  3  3     0.0000000000e+00
 3  1  1     2.8975723215e-01
 3  1  2     0.0000000000e+00
 3  1  3    -2.8975723215e-01
 3  2  1     0.0000000000e+00
 3  2  2    -1.0804961706e-01
 3  2  3     0.0000000000e+00
 3  3  1    -2.6107610990e-01
 3  3  2     0.0000000000e+00
 3  3  3     1.3562569705e-01

    6
0.0000000000e+00 0.0000000000e+00 0.0000000000e+00
2.4189880960e+00 0.0000000000e+00 -2.4189880960e+00
     1      1      2
 1  1  1     0.0000000000e+00
 1  1  2     8.5263719385e-02
 1  1  3     0.0000000000e+00
 1  2  1    -4.2794313944e-02
 1  2  2     0.0000000000e+00
 1  2  3     0.0000000000e+00
 1  3  1     0.0000000000e+00
 1  3  2     0.0000000000e+00
 1  3  3     0.0000000000e+00
 2  1  1    -4.2794313944e-02
 2  1  2     0.0000000000e+00
 2  1  3     0.0000000000e+00
 2  2  1     0.0000000000e+00
 2  2  2    -2.5925670131e+00
 2  2  3     0.0000000000e+00
 2  3  1     0.0000000000e+00
 2  3  2     0.0000000000e+00
 2  3  3    -4.2794313944e-02
 3  1  1     0.0000000000e+00
 3  1  2     0.0000000000e+00
 3  1  3     0.0000000000e+00
 3  2  1     0.0000000000e+00
 3  2  2     0.0000000000e+00
 3  2  3    -4.2794313944e-02
 3  3  1     0.0000000000e+00
 3  3  2     8.5263719385e-02
 3  3  3     0.0000000000e+00

    7
0.0000000000e+00 0.0000000000e+00 0.0000000000e+00
0.0000000000e+00 2.4189880960e+00 2.4189880960e+00
     1      1      1
 1  1  1     0.0000000000e+00
 1  1  2     8.9738845031e-02
 1  1  3     8.9738845031e-02
 1  2  1     1.0804961706e-01
 1  2  2     0.0000000000e+00
 1  2  3     0.0000000000e+00
 1  3  1     1.0804961706e-01
 1  3  2     0.0000000000e+00
 1  3  3     0.0000000000e+00
 2  1  1     1.0804961706e-01
 2  1  2     0.0000000000e+00
 2  1  3     0.0000000000e+00
 2  2  1     0.0000000000e+00
 2  2  2    -1.3562569705e-01
 2  2  3    -2.6107610990e-01
 2  3  1     0.0000000000e+00
 2  3  2    -2.8975723215e-01
 2  3  3    -2.8975723215e-01
 3  1  1     1.0804961706e-01
 3  1  2     0.0000000000e+00
 3  1  3     0.0000000000e+00
 3  2  1     0.0000000000e+00
 3  2  2    -2.8975723215e-01
 3  2  3    -2.8975723215e-01
 3  3  1     0.0000000000e+00
 3  3  2    -2.6107610990e-01
 3  3  3    -1.3562569705e-01

    8
0.0000000000e+00 0.0000000000e+00 0.0000000000e+00
2.4189880960e+00 2.4189880960e+00 0.0000000000e+00
     1      1      1
 1  1  1    -1.3562569705e-01
 1  1  2    -2.6107610990e-01
 1  1  3     0.0000000000e+00
 1  2  1    -2.8975723215e-01
 1  2  2    -2.8975723215e-01
 1  2  3     0.0000000000e+00
 1  3  1     0.0000000000e+00
 1  3  2     0.0000000000e+00
 1  3  3     1.0804961706e-01
 2  1  1    -2.8975723215e-01
 2  1  2    -2.8975723215e-01
 2  1  3     0.0000000000e+00
 2  2  1    -2.6107610990e-01
 2  2  2    -1.3562569705e-01
 2  2  3     0.0000000000e+00
 2  3  1     0.0000000000e+00
 2  3  2     0.0000000000e+00
 2  3  3     1.0804961706e-01
 3  1  1     0.0000000000e+00
 3  1  2     0.0000000000e+00
 3  1  3     1.0804961706e-01
 3  2  1     0.0000000000e+00
 3  2  2     0.0000000000e+00
 3  2  3     1.0804961706e-01
 3  3  1     8.9738845031e-02
 3  3  2     8.9738845031e-02
 3  3  3     0.0000000000e+00

    9
0.0000000000e+00 0.0000000000e+00 0.0000000000e+00
0.0000000000e+00 -4.8379761920e+00 -4.8379761920e+00
     1      1      2
 1  1  1     4.2302459541e-03
 1  1  2    -3.8593527187e-02
 1  1  3    -3.8593527187e-02
 1  2  1    -3.3703829933e-02
 1  2  2    -3.3703829933e-02
 1  2  3    -4.2323899649e-02
 1  3  1    -3.3703829933e-02
 1  3  2    -4.2323899649e-02
 1  3  3    -3.3703829933e-02
 2  1  1    -3.3703829933e-02
 2  1  2    -3.3703829933e-02
 2  1  3    -4.2323899649e-02
 2  2  1    -3.8593527187e-02
 2  2  2     4.2302459541e-03
 2  2  3    -3.8593527187e-02
 2  3  1    -4.2323899649e-02
 2  3  2    -3.3703829933e-02
 2  3  3    -3.3703829933e-02
 3  1  1    -3.3703829933e-02
 3  1  2    -4.2323899649e-02
 3  1  3    -3.3703829933e-02
 3  2  1    -4.2323899649e-02
 3  2  2    -3.3703829933e-02
 3  2  3    -3.3703829933e-02
 3  3  1    -3.8593527187e-02
 3  3  2    -3.8593527187e-02
 3  3  3     4.2302459541e-03

   10
0.0000000000e+00 0.0000000000e+00 0.0000000000e+00
0.0000000000e+00 -2.4189880960e+00 -2.4189880960e+00
     1      1      1
 1  1  1     0.0000000000e+00
 1  1  2    -8.9738845031e-02
 1  1  3    -8.9738845031e-02
 1  2  1    -1.0804961706e-01
 1  2  2     0.0000000000e+00
 1  2  3     0.0000000000e+00
 1  3  1    -1.0804961706e-01
 1  3  2     0.0000000000e+00
 1  3  3     0.0000000000e+00
 2  1  1    -1.0804961706e-01
 2  1  2     0.0000000000e+00
 2  1  3     0.0000000000e+00
 2  2  1     0.0000000000e+00
 2  2  2     1.3562569705e-01
 2  2  3     2.6107610990e-01
 2  3  1     0.0000000000e+00
 2  3  2     2.8975723215e-01
 2  3  3     2.8975723215e-01
 3  1  1    -1.0804961706e-01
 3  1  2     0.0000000000e+00
 3  1  3     0.0000000000e+00
 3  2  1     0.0000000000e+00
 3  2  2     2.8975723215e-01
 3  2  3     2.8975723215e-01
 3  3  1     0.0000000000e+00
 3  3  2     2.6107610990e-01
 3  3  3     1.3562569705e-01

   11
0.0000000000e+00 0.0000000000e+00 0.0000000000e+00
0.0000000000e+00 -2.4189880960e+00 -2.4189880960e+00
     1      1      2
 1  1  1     2.5925670131e+00
 1  1  2     0.0000000000e+00
 1  1  3     0.0000000000e+00
 1  2  1     0.0000000000e+00
 1  2  2     4.2794313944e-02
 1  2  3     0.0000000000e+00
 1  3  1     0.0000000000e+00
 1  3  2     0.0000000000e+00
 1  3  3     4.2794313944e-02
 2  1  1     0.0000000000e+00
 2  1  2     4.2794313944e-02
 2  1  3     0.0000000000e+00
 2  2  1    -8.5263719385e-02
 2  2  2     0.0000000000e+00
 2  2  3     0.0000000000e+00
 2  3  1     0.0000000000e+00
 2  3  2     0.0000000000e+00
 2  3  3     0.0000000000e+00
 3  1  1     0.0000000000e+00
 3  1  2     0.0000000000e+00
 3  1  3     4.2794313944e-02
 3  2  1     0.0000000000e+00
 3  2  2     0.0000000000e+00
 3  2  3     0.0000000000e+00
 3  3  1    -8.5263719385e-02
 3  3  2     0.0000000000e+00
 3  3  3     0.0000000000e+00

   12
0.0000000000e+00 0.0000000000e+00 0.0000000000e+00
-2.4189880960e+00 -2.4189880960e+00 0.0000000000e+00
     1      1      1
 1  1  1     1.3562569705e-01
 1  1  2     2.6107610990e-01
 1  1  3     0.0000000000e+00
 1  2  1     2.8975723215e-01
 1  2  2     2.8975723215e-01
 1  2  3     0.0000000000e+00
 1  3  1     0.0000000000e+00
 1  3  2     0.0000000000e+00
 1  3  3    -1.0804961706e-01
 2  1  1     2.8975723215e-01
 2  1  2     2.8975723215e-01
 2  1  3     0.0000000000e+00
 2  2  1     2.6107610990e-01
 2  2  2     1.3562569705e-01
 2  2  3     0.0000000000e+00
 2  3  1     0.0000000000e+00
 2  3  2     0.0000000000e+00
 2  3  3    -1.0804961706e-01
 3  1  1     0.0000000000e+00
 3  1  2     0.0000000000e+00
 3  1  3    -1.0804961706e-01
 3  2  1     0.0000000000e+00
 3  2  2     0.0000000000e+00
 3  2  3    -1.0804961706e-01
 3  3  1    -8.9738845031e-02
 3  3  2    -8.9738845031e-02
 3  3  3     0.0000000000e+00

   13
0.0000000000e+00 0.0000000000e+00 0.0000000000e+00
2.4189880960e+00 -2.4189880960e+00 -4.8379761920e+00
     1      1      2
 1  1  1     0.0000000000e+00
 1  1  2     0.0000000000e+00
 1  1  3    -8.5263719385e-02
 1  2  1     0.0000000000e+00
 1  2  2     0.0000000000e+00
 1  2  3     0.0000000000e+00
 1  3  1     4.2794313944e-02
 1  3  2     0.0000000000e+00
 1  3  3     0.0000000000e+00
 2  1  1     0.0000000000e+00
 2  1  2     0.0000000000e+00
 2  1  3     0.0000000000e+00
 2  2  1     0.0000000000e+00
 2  2  2     0.0000000000e+00
 2  2  3    -8.5263719385e-02
 2  3  1     0.0000000000e+00
 2  3  2     4.2794313944e-02
 2  3  3     0.0000000000e+00
 3  1  1     4.2794313944e-02
 3  1  2     0.0000000000e+00
 3  1  3     0.0000000000e+00
 3  2  1     0.0000000000e+00
 3  2  2     4.2794313944e-02
 3  2  3     0.0000000000e+00
 3  3  1     0.0000000000e+00
 3  3  2     0.0000000000e+00
 3  3  3     2.5925670131e+00

   14
0.0000000000e+00 0.0000000000e+00 0.0000000000e+00
-2.4189880960e+00 2.4189880960e+00 0.0000000000e+00
     1      1      1
 1  1  1     1.3562569705e-01
 1  1  2    -2.6107610990e-01
 1  1  3     0.0000000000e+00
 1  2  1    -2.8975723215e-01
 1  2  2     2.8975723215e-01
 1  2  3     0.0000000000e+00
 1  3  1     0.0000000000e+00
 1  3  2     0.0000000000e+00
 1  3  3    -1.0804961706e-01
 2  1  1    -2.8975723215e-01
 2  1  2     2.8975723215e-01
 2  1  3     0.0000000000e+00
 2  2  1     2.6107610990e-01
 2  2  2    -1.3562569705e-01
 2  2  3     0.0000000000e+00
 2  3  1     0.0000000000e+00
 2  3  2     0.0000000000e+00
 2  3  3     1.0804961706e-01
 3  1  1     0.0000000000e+00
 3  1  2     0.0000000000e+00
 3  1  3    -1.0804961706e-01
 3  2  1     0.0000000000e+00
 3  2  2     0.0000000000e+00
 3  2  3     1.0804961706e-01
 3  3  1    -8.9738845031e-02
 3  3  2     8.9738845031e-02
 3  3  3     0.0000000000e+00

   15
0.0000000000e+00 0.0000000000e+00 0.0000000000e+00
0.0000000000e+00 2.4189880960e+00 -2.4189880960e+00
     1      1      1
 1  1  1     0.0000000000e+00
 1  1  2     8.9738845031e-02
 1  1  3    -8.9738845031e-02
 1  2  1     1.0804961706e-01
 1  2  2     0.0000000000e+00
 1  2  3     0.0000000000e+00
 1  3  1    -1.0804961706e-01
 1  3  2     0.0000000000e+00
 1  3  3     0.0000000000e+00
 2  1  1     1.0804961706e-01
 2  1  2     0.0000000000e+00
 2  1  3     0.0000000000e+00
 2  2  1     0.0000000000e+00
 2  2  2    -1.3562569705e-01
 2  2  3     2.6107610990e-01
 2  3  1     0.0000000000e+00
 2  3  2     2.8975723215e-01
 2  3  3    -2.8975723215e-01
 3  1  1    -1.0804961706e-01
 3  1  2     0.0000000000e+00
 3  1  3     0.0000000000e+00
 3  2  1     0.0000000000e+00
 3  2  2     2.8975723215e-01
 3  2  3    -2.8975723215e-01
 3  3  1     0.0000000000e+00
 3  3  2    -2.6107610990e-01
 3  3  3     1.3562569705e-01

   16
0.0000000000e+00 0.0000000000e+00 0.0000000000e+00
0.0000000000e+00 4.8379761920e+00 0.0000000000e+00
     1      1      1
 1  1  1     0.0000000000e+00
 1  1  2     3.0618370024e-02
 1  1  3     0.0000000000e+00
 1  2  1     6.4663590629e-03
 1  2  2     0.0000000000e+00
 1  2  3     0.0000000000e+00
 1  3  1     0.0000000000e+00
 1  3  2     0.0000000000e+00
 1  3  3     0.0000000000e+00
 2  1  1     6.4663590629e-03
 2  1  2     0.0000000000e+00
 2  1  3     0.0000000000e+00
 2  2  1     0.0000000000e+00
 2  2  2     2.2497153540e-02
 2  2  3     0.0000000000e+00
 2  3  1     0.0000000000e+00
 2  3  2     0.0000000000e+00
 2  3  3     6.4663590629e-03
 3  1  1     0.0000000000e+00
 3  1  2     0.0000000000e+00
 3  1  3     0.0000000000e+00
 3  2  1     0.0000000000e+00
 3  2  2     0.0000000000e+00
 3  2  3     6.4663590629e-03
 3  3  1     0.0000000000e+00
 3  3  2     3.0618370024e-02
 3  3  3     0.0000000000e+00

   17
0.0000000000e+00 0.0000000000e+00 0.0000000000e+00
-2.4189880960e+00 0.0000000000e+00 -2.4189880960e+00
     1      1      1
 1  1  1     1.3562569705e-01
 1  1  2     0.0000000000e+00
 1  1  3     2.6107610990e-01
 1  2  1     0.0000000000e+00
 1  2  2    -1.0804961706e-01
 1  2  3     0.0000000000e+00
 1  3  1     2.8975723215e-01
 1  3  2     0.0000000000e+00
 1  3  3     2.8975723215e-01
 2  1  1     0.0000000000e+00
 2  1  2    -1.0804961706e-01
 2  1  3     0.0000000000e+00
 2  2  1    -8.9738845031e-02
 2  2  2     0.0000000000e+00
 2  2  3    -8.9738845031e-02
 2  3  1     0.0000000000e+00
 2  3  2    -1.0804961706e-01
 2  3  3     0.0000000000e+00
 3  1  1     2.8975723215e-01
 3  1  2     0.0000000000e+00
 3  1  3     2.8975723215e-01
 3  2  1     0.0000000000e+00
 3  2  2    -1.0804961706e-01
 3  2  3     0.0000000000e+00
 3  3  1     2.6107610990e-01
 3  3  2     0.0000000000e+00
 3  3  3     1.3562569705e-01

   18
0.0000000000e+00 0.0000000000e+00 0.0000000000e+00
-4.8379761920e+00 0.0000000000e+00 0.0000000000e+00
     1      1      1
 1  1  1    -2.2497153540e-02
 1  1  2     0.0000000000e+00
 1  1  3     0.0000000000e+00
 1  2  1     0.0000000000e+00
 1  2  2    -6.4663590629e-03
 1  2  3     0.0000000000e+00
 1  3  1     0.0000000000e+00
 1  3  2     0.0000000000e+00
 1  3  3    -6.4663590629e-03
 2  1  1     0.0000000000e+00
 2  1  2    -6.4663590629e-03
 2  1  3     0.0000000000e+00
 2  2  1    -3.0618370024e-02
 2  2  2     0.0000000000e+00
 2  2  3     0.0000000000e+00
 2  3  1     0.0000000000e+00
 2  3  2     0.0000000000e+00
 2  3  3     0.0000000000e+00
 3  1  1     0.0000000000e+00
 3  1  2     0.0000000000e+00
 3  1  3    -6.4663590629e-03
 3  2  1     0.0000000000e+00
 3  2  2     0.0000000000e+00
 3  2  3     0.0000000000e+00
 3  3  1    -3.0618370024e-02
 3  3  2     0.0000000000e+00
 3  3  3     0.0000000000e+00

   19
0.0000000000e+00 0.0000000000e+00 0.0000000000e+00
0.0000000000e+00 0.0000000000e+00 -4.8379761920e+00
     1      1      1
 1  1  1     0.0000000000e+00
 1  1  2     0.0000000000e+00
 1  1  3    -3.0618370024e-02
 1  2  1     0.0000000000e+00
 1  2  2     0.0000000000e+00
 1  2  3     0.0000000000e+00
 1  3  1    -6.4663590629e-03
 1  3  2     0.0000000000e+00
 1  3  3     0.0000000000e+00
 2  1  1     0.0000000000e+00
 2  1  2     0.0000000000e+00
 2  1  3     0.0000000000e+00
 2  2  1     0.0000000000e+00
 2  2  2     0.0000000000e+00
 2  2  3    -3.0618370024e-02
 2  3  1     0.0000000000e+00
 2  3  2    -6.4663590629e-03
 2  3  3     0.0000000000e+00
 3  1  1    -6.4663590629e-03
 3  1  2     0.0000000000e+00
 3  1  3     0.0000000000e+00
 3  2  1     0.0000000000e+00
 3  2  2    -6.4663590629e-03
 3  2  3     0.0000000000e+00
 3  3  1     0.0000000000e+00
 3  3  2     0.0000000000e+00
 3  3  3    -2.2497153540e-02

   20
0.0000000000e+00 0.0000000000e+00 0.0000000000e+00
0.0000000000e+00 0.0000000000e+00 -4.8379761920e+00
     1      1      2
 1  1  1     4.2302459541e-03
 1  1  2     3.8593527187e-02
 1  1  3    -3.8593527187e-02
 1  2  1     3.3703829933e-02
 1  2  2    -3.3703829933e-02
 1  2  3     4.2323899649e-02
 1  3  1    -3.3703829933e-02
 1  3  2     4.2323899649e-02
 1  3  3    -3.3703829933e-02
 2  1  1     3.3703829933e-02
 2  1  2    -3.3703829933e-02
 2  1  3     4.2323899649e-02
 2  2  1    -3.8593527187e-02
 2  2  2    -4.2302459541e-03
 2  2  3    -3.8593527187e-02
 2  3  1     4.2323899649e-02
 2  3  2    -3.3703829933e-02
 2  3  3     3.3703829933e-02
 3  1  1    -3.3703829933e-02
 3  1  2     4.2323899649e-02
 3  1  3    -3.3703829933e-02
 3  2  1     4.2323899649e-02
 3  2  2    -3.3703829933e-02
 3  2  3     3.3703829933e-02
 3  3  1    -3.8593527187e-02
 3  3  2     3.8593527187e-02
 3  3  3     4.2302459541e-03

   21
0.0000000000e+00 0.0000000000e+00 0.0000000000e+00
4.8379761920e+00 -4.8379761920e+00 0.0000000000e+00
     1      1      2
 1  1  1    -4.2302459541e-03
 1  1  2    -3.8593527187e-02
 1  1  3     3.8593527187e-02
 1  2  1    -3.3703829933e-02
 1  2  2     3.3703829933e-02
 1  2  3    -4.2323899649e-02
 1  3  1     3.3703829933e-02
 1  3  2    -4.2323899649e-02
 1  3  3     3.3703829933e-02
 2  1  1    -3.3703829933e-02
 2  1  2     3.3703829933e-02
 2  1  3    -4.2323899649e-02
 2  2  1     3.8593527187e-02
 2  2  2     4.2302459541e-03
 2  2  3     3.8593527187e-02
 2  3  1    -4.2323899649e-02
 2  3  2     3.3703829933e-02
 2  3  3    -3.3703829933e-02
 3  1  1     3.3703829933e-02
 3  1  2    -4.2323899649e-02
 3  1  3     3.3703829933e-02
 3  2  1    -4.2323899649e-02
 3  2  2     3.3703829933e-02
 3  2  3    -3.3703829933e-02
 3  3  1     3.8593527187e-02
 3  3  2    -3.8593527187e-02
 3  3  3    -4.2302459541e-03

   22
0.0000000000e+00 0.0000000000e+00 0.0000000000e+00
2.4189880960e+00 -2.4189880960e+00 0.0000000000e+00
     1      1      1
 1  1  1    -1.3562569705e-01
 1  1  2     2.6107610990e-01
 1  1  3     0.0000000000e+00
 1  2  1     2.8975723215e-01
 1  2  2    -2.8975723215e-01
 1  2  3     0.0000000000e+00
 1  3  1     0.0000000000e+00
 1  3  2     0.0000000000e+00
 1  3  3     1.0804961706e-01
 2  1  1     2.8975723215e-01
 2  1  2    -2.8975723215e-01
 2  1  3     0.0000000000e+00
 2  2  1    -2.6107610990e-01
 2  2  2     1.3562569705e-01
 2  2  3     0.0000000000e+00
 2  3  1     0.0000000000e+00
 2  3  2     0.0000000000e+00
 2  3  3    -1.0804961706e-01
 3  1  1     0.0000000000e+00
 3  1  2     0.0000000000e+00
 3  1  3     1.0804961706e-01
 3  2  1     0.0000000000e+00
 3  2  2     0.0000000000e+00
 3  2  3    -1.0804961706e-01
 3  3  1     8.9738845031e-02
 3  3  2    -8.9738845031e-02
 3  3  3     0.0000000000e+00

   23
0.0000000000e+00 0.0000000000e+00 0.0000000000e+00
2.4189880960e+00 -2.4189880960e+00 0.0000000000e+00
     1      1      2
 1  1  1     0.0000000000e+00
 1  1  2     0.0000000000e+00
 1  1  3     8.5263719385e-02
 1  2  1     0.0000000000e+00
 1  2  2     0.0000000000e+00
 1  2  3     0.0000000000e+00
 1  3  1    -4.2794313944e-02
 1  3  2     0.0000000000e+00
 1  3  3     0.0000000000e+00
 2  1  1     0.0000000000e+00
 2  1  2     0.0000000000e+00
 2  1  3     0.0000000000e+00
 2  2  1     0.0000000000e+00
 2  2  2     0.0000000000e+00
 2  2  3     8.5263719385e-02
 2  3  1     0.0000000000e+00
 2  3  2    -4.2794313944e-02
 2  3  3     0.0000000000e+00
 3  1  1    -4.2794313944e-02
 3  1  2     0.0000000000e+00
 3  1  3     0.0000000000e+00
 3  2  1     0.0000000000e+00
 3  2  2    -4.2794313944e-02
 3  2  3     0.0000000000e+00
 3  3  1     0.0000000000e+00
 3  3  2     0.0000000000e+00
 3  3  3    -2.5925670131e+00

   24
0.0000000000e+00 0.0000000000e+00 0.0000000000e+00
0.0000000000e+00 -2.4189880960e+00 2.4189880960e+00
     1      1      1
 1  1  1     0.0000000000e+00
 1  1  2    -8.9738845031e-02
 1  1  3     8.9738845031e-02
 1  2  1    -1.0804961706e-01
 1  2  2     0.0000000000e+00
 1  2  3     0.0000000000e+00
 1  3  1     1.0804961706e-01
 1  3  2     0.0000000000e+00
 1  3  3     0.0000000000e+00
 2  1  1    -1.0804961706e-01
 2  1  2     0.0000000000e+00
 2  1  3     0.0000000000e+00
 2  2  1     0.0000000000e+00
 2  2  2     1.3562569705e-01
 2  2  3    -2.6107610990e-01
 2  3  1     0.0000000000e+00
 2  3  2    -2.8975723215e-01
 2  3  3     2.8975723215e-01
 3  1  1     1.0804961706e-01
 3  1  2     0.0000000000e+00
 3  1  3     0.0000000000e+00
 3  2  1     0.0000000000e+00
 3  2  2    -2.8975723215e-01
 3  2  3     2.8975723215e-01
 3  3  1     0.0000000000e+00
 3  3  2     2.6107610990e-01
 3  3  3    -1.3562569705e-01

   25
0.0000000000e+00 0.0000000000e+00 0.0000000000e+00
4.8379761920e+00 -2.4189880960e+00 -2.4189880960e+00
     1      1      2
 1  1  1    -2.5925670131e+00
 1  1  2     0.0000000000e+00
 1  1  3     0.0000000000e+00
 1  2  1     0.0000000000e+00
 1  2  2    -4.2794313944e-02
 1  2  3     0.0000000000e+00
 1  3  1     0.0000000000e+00
 1  3  2     0.0000000000e+00
 1  3  3    -4.2794313944e-02
 2  1  1     0.0000000000e+00
 2  1  2    -4.2794313944e-02
 2  1  3     0.0000000000e+00
 2  2  1     8.5263719385e-02
 2  2  2     0.0000000000e+00
 2  2  3     0.0000000000e+00
 2  3  1     0.0000000000e+00
 2  3  2     0.0000000000e+00
 2  3  3     0.0000000000e+00
 3  1  1     0.0000000000e+00
 3  1  2     0.0000000000e+00
 3  1  3    -4.2794313944e-02
 3  2  1     0.0000000000e+00
 3  2  2     0.0000000000e+00
 3  2  3     0.0000000000e+00
 3  3  1     8.5263719385e-02
 3  3  2     0.0000000000e+00
 3  3  3     0.0000000000e+00

   26
0.0000000000e+00 0.0000000000e+00 0.0000000000e+00
2.4189880960e+00 0.0000000000e+00 2.4189880960e+00
     1      1      1
 1  1  1    -1.3562569705e-01
 1  1  2     0.0000000000e+00
 1  1  3    -2.6107610990e-01
 1  2  1     0.0000000000e+00
 1  2  2     1.0804961706e-01
 1  2  3     0.0000000000e+00
 1  3  1    -2.8975723215e-01
 1  3  2     0.0000000000e+00
 1  3  3    -2.8975723215e-01
 2  1  1     0.0000000000e+00
 2  1  2     1.0804961706e-01
 2  1  3     0.0000000000e+00
 2  2  1     8.9738845031e-02
 2  2  2     0.0000000000e+00
 2  2  3     8.9738845031e-02
 2  3  1     0.0000000000e+00
 2  3  2     1.0804961706e-01
 2  3  3     0.0000000000e+00
 3  1  1    -2.8975723215e-01
 3  1  2     0.0000000000e+00
 3  1  3    -2.8975723215e-01
 3  2  1     0.0000000000e+00
 3  2  2     1.0804961706e-01
 3  2  3     0.0000000000e+00
 3  3  1    -2.6107610990e-01
 3  3  2     0.0000000000e+00
 3  3  3    -1.3562569705e-01

   27
0.0000000000e+00 0.0000000000e+00 0.0000000000e+00
0.0000000000e+00 0.0000000000e+00 4.8379761920e+00
     1      1      1
 1  1  1     0.0000000000e+00
 1  1  2     0.0000000000e+00
 1  1  3     3.0618370024e-02
 1  2  1     0.0000000000e+00
 1  2  2     0.0000000000e+00
 1  2  3     0.0000000000e+00
 1  3  1     6.4663590629e-03
 1  3  2     0.0000000000e+00
 1  3  3     0.0000000000e+00
 2  1  1     0.0000000000e+00
 2  1  2     0.0000000000e+00
 2  1  3     0.0000000000e+00
 2  2  1     0.0000000000e+00
 2  2  2     0.0000000000e+00
 2  2  3     3.0618370024e-02
 2  3  1     0.0000000000e+00
 2  3  2     6.4663590629e-03
 2  3  3     0.0000000000e+00
 3  1  1     6.4663590629e-03
 3  1  2     0.0000000000e+00
 3  1  3     0.0000000000e+00
 3  2  1     0.0000000000e+00
 3  2  2     6.4663590629e-03
 3  2  3     0.0000000000e+00
 3  3  1     0.0000000000e+00
 3  3  2     0.0000000000e+00
 3  3  3     2.2497153540e-02

   28
0.0000000000e+00 0.0000000000e+00 0.0000000000e+00
4.8379761920e+00 0.0000000000e+00 0.0000000000e+00
     1      1      1
 1  1  1     2.2497153540e-02
 1  1  2     0.0000000000e+00
 1  1  3     0.0000000000e+00
 1  2  1     0.0000000000e+00
 1  2  2     6.4663590629e-03
 1  2  3     0.0000000000e+00
 1  3  1     0.0000000000e+00
 1  3  2     0.0000000000e+00
 1  3  3     6.4663590629e-03
 2  1  1     0.0000000000e+00
 2  1  2     6.4663590629e-03
 2  1  3     0.0000000000e+00
 2  2  1     3.0618370024e-02
 2  2  2     0.0000000000e+00
 2  2  3     0.0000000000e+00
 2  3  1     0.0000000000e+00
 2  3  2     0.0000000000e+00
 2  3  3     0.0000000000e+00
 3  1  1     0.0000000000e+00
 3  1  2     0.0000000000e+00
 3  1  3     6.4663590629e-03
 3  2  1     0.0000000000e+00
 3  2  2     0.0000000000e+00
 3  2  3     0.0000000000e+00
 3  3  1     3.0618370024e-02
 3  3  2     0.0000000000e+00
 3  3  3     0.0000000000e+00

   29
0.0000000000e+00 0.0000000000e+00 0.0000000000e+00
4.8379761920e+00 0.0000000000e+00 0.0000000000e+00
     1      1      2
 1  1  1    -4.2302459541e-03
 1  1  2     3.8593527187e-02
 1  1  3     3.8593527187e-02
 1  2  1     3.3703829933e-02
 1  2  2     3.3703829933e-02
 1  2  3     4.2323899649e-02
 1  3  1     3.3703829933e-02
 1  3  2     4.2323899649e-02
 1  3  3     3.3703829933e-02
 2  1  1     3.3703829933e-02
 2  1  2     3.3703829933e-02
 2  1  3     4.2323899649e-02
 2  2  1     3.8593527187e-02
 2  2  2    -4.2302459541e-03
 2  2  3     3.8593527187e-02
 2  3  1     4.2323899649e-02
 2  3  2     3.3703829933e-02
 2  3  3     3.3703829933e-02
 3  1  1     3.3703829933e-02
 3  1  2     4.2323899649e-02
 3  1  3     3.3703829933e-02
 3  2  1     4.2323899649e-02
 3  2  2     3.3703829933e-02
 3  2  3     3.3703829933e-02
 3  3  1     3.8593527187e-02
 3  3  2     3.8593527187e-02
 3  3  3    -4.2302459541e-03

   30
0.0000000000e+00 0.0000000000e+00 0.0000000000e+00
2.4189880960e+00 -4.8379761920e+00 -2.4189880960e+00
     1      1      2
 1  1  1     0.0000000000e+00
 1  1  2    -8.5263719385e-02
 1  1  3     0.0000000000e+00
 1  2  1     4.2794313944e-02
 1  2  2     0.0000000000e+00
 1  2  3     0.0000000000e+00
 1  3  1     0.0000000000e+00
 1  3  2     0.0000000000e+00
 1  3  3     0.0000000000e+00
 2  1  1     4.2794313944e-02
 2  1  2     0.0000000000e+00
 2  1  3     0.0000000000e+00
 2  2  1     0.0000000000e+00
 2  2  2     2.5925670131e+00
 2  2  3     0.0000000000e+00
 2  3  1     0.0000000000e+00
 2  3  2     0.0000000000e+00
 2  3  3     4.2794313944e-02
 3  1  1     0.0000000000e+00
 3  1  2     0.0000000000e+00
 3  1  3     0.0000000000e+00
 3  2  1     0.0000000000e+00
 3  2  2     0.0000000000e+00
 3  2  3     4.2794313944e-02
 3  3  1     0.0000000000e+00
 3  3  2    -8.5263719385e-02
 3  3  3     0.0000000000e+00

   31
0.0000000000e+00 0.0000000000e+00 0.0000000000e+00
0.0000000000e+00 -4.8379761920e+00 0.0000000000e+00
     1      1      1
 1  1  1     0.0000000000e+00
 1  1  2    -3.0618370024e-02
 1  1  3     0.0000000000e+00
 1  2  1    -6.4663590629e-03
 1  2  2     0.0000000000e+00
 1  2  3     0.0000000000e+00
 1  3  1     0.0000000000e+00
 1  3  2     0.0000000000e+00
 1  3  3     0.0000000000e+00
 2  1  1    -6.4663590629e-03
 2  1  2     0.0000000000e+00
 2  1  3     0.0000000000e+00
 2  2  1     0.0000000000e+00
 2  2  2    -2.2497153540e-02
 2  2  3     0.0000000000e+00
 2  3  1     0.0000000000e+00
 2  3  2     0.0000000000e+00
 2  3  3    -6.4663590629e-03
 3  1  1     0.0000000000e+00
 3  1  2     0.0000000000e+00
 3  1  3     0.0000000000e+00
 3  2  1     0.0000000000e+00
 3  2  2     0.0000000000e+00
 3  2  3    -6.4663590629e-03
 3  3  1     0.0000000000e+00
 3  3  2    -3.0618370024e-02
 3  3  3     0.0000000000e+00

   32
0.0000000000e+00 0.0000000000e+00 0.0000000000e+00
0.0000000000e+00 -4.8379761920e+00 0.0000000000e+00
     1      1      2
 1  1  1     4.2302459541e-03
 1  1  2    -3.8593527187e-02
 1  1  3     3.8593527187e-02
 1  2  1    -3.3703829933e-02
 1  2  2    -3.3703829933e-02
 1  2  3     4.2323899649e-02
 1  3  1     3.3703829933e-02
 1  3  2     4.2323899649e-02
 1  3  3    -3.3703829933e-02
 2  1  1    -3.3703829933e-02
 2  1  2    -3.3703829933e-02
 2  1  3     4.2323899649e-02
 2  2  1    -3.8593527187e-02
 2  2  2     4.2302459541e-03
 2  2  3     3.8593527187e-02
 2  3  1     4.2323899649e-02
 2  3  2     3.3703829933e-02
 2  3  3    -3.3703829933e-02
 3  1  1     3.3703829933e-02
 3  1  2     4.2323899649e-02
 3  1  3    -3.3703829933e-02
 3  2  1     4.2323899649e-02
 3  2  2     3.3703829933e-02