   0.97981E+00   0.66877E-02   0.22762E-02   0.22762E-02
   0.19596E+01   0.70940E-02   0.24549E-02   0.24549E-02
   0.29394E+01   0.87036E-02   0.30620E-02   0.30620E-02
   0.39192E+01   0.85203E-02   0.30282E-02   0.30282E-02
   0.48991E+01   0.10258E-01   0.36909E-02   0.36909E-02
   0.58789E+01   0.10947E-01   0.39766E-02   0.39766E-02
   0.68587E+01   0.11657E-01   0.42491E-02   0.42491E-02
   0.78385E+01   0.11981E-01   0.43961E-02   0.43961E-02
   0.88183E+01   0.13082E-01   0.48078E-02   0.48078E-02
   0.97981E+01   0.14012E-01   0.51721E-02   0.51721E-02
   0.10778E+02   0.15135E-01   0.56093E-02   0.56093E-02
   0.11758E+02   0.16704E-01   0.61901E-02   0.61901E-02
   0.12738E+02   0.17611E-01   0.65633E-02   0.65633E-02
   0.13717E+02   0.19338E-01   0.72145E-02   0.72145E-02
   0.14697E+02   0.20780E-01   0.77671E-02   0.77671E-02
   0.15677E+02   0.22050E-01   0.82811E-02   0.82811E-02
   0.16657E+02   0.24185E-01   0.90720E-02   0.90720E-02
   0.17637E+02   0.25722E-01   0.96691E-02   0.96691E-02
   0.18616E+02   0.27493E-01   0.10358E-01   0.10358E-01
   0.19596E+02   0.30010E-01   0.11269E-01   0.11269E-01
   0.20576E+02   0.31800E-01   0.11945E-01   0.11945E-01
   0.21556E+02   0.32716E-01   0.12304E-01   0.12304E-01
   0.22536E+02   0.33607E-01   0.12581E-01   0.12581E-01
   0.23515E+02   0.36533E-01   0.13609E-01   0.13609E-01
   0.24495E+02   0.40812E-01   0.15172E-01   0.15172E-01
   0.25475E+02   0.42367E-01   0.15659E-01   0.15659E-01
   0.26455E+02   0.48501E-01   0.17795E-01   0.17795E-01
   0.27435E+02   0.56894E-01   0.20718E-01   0.20718E-01
   0.28415E+02   0.67128E-01   0.24260E-01   0.24260E-01
   0.29394E+02   0.10155E+00   0.36967E-01   0.36967E-01
   0.30374E+02   0.80835E-01   0.27958E-01   0.27958E-01
   0.31354E+02   0.89023E-01   0.29551E-01   0.29551E-01
   0.32334E+02   0.12585E+00   0.39964E-01   0.39964E-01
   0.33314E+02   0.98123E-01   0.29962E-01   0.29962E-01
   0.34293E+02   0.58450E-01   0.14844E-01   0.14844E-01
   0.35273E+02   0.45903E+00   0.78415E-01   0.78415E-01
   0.36253E+02   0.20964E-01   0.51128E-02   0.51128E-02
   0.37233E+02   0.24569E-01   0.58609E-02   0.58609E-02
   0.38213E+02   0.31515E-01   0.74259E-02   0.74259E-02
   0.39192E+02   0.41508E-01   0.99593E-02   0.99593E-02
   0.40172E+02   0.53965E-01   0.13987E-01   0.13987E-01
   0.41152E+02   0.61522E-01   0.17231E-01   0.17231E-01
   0.42132E+02   0.11981E+00   0.35197E-01   0.35197E-01
   0.43112E+02   0.82843E-01   0.22226E-01   0.22226E-01
   0.44092E+02   0.54654E-01   0.10333E-01   0.10333E-01
   0.45071E+02   0.00000E+00   0.00000E+00   0.00000E+00
   0.46051E+02   0.00000E+00   0.00000E+00   0.00000E+00
   0.47031E+02   0.00000E+00   0.00000E+00   0.00000E+00
   0.48011E+02   0.00000E+00   0.00000E+00   0.00000E+00
   0.48991E+02   0.00000E+00   0.00000E+00   0.00000E+00
   0.49970E+02   0.00000E+00   0.00000E+00   0.00000E+00
   0.50950E+02   0.00000E+00   0.00000E+00   0.00000E+00
   0.51930E+02   0.00000E+00   0.00000E+00   0.00000E+00
   0.52910E+02   0.00000E+00   0.00000E+00   0.00000E+00
   0.53890E+02   0.00000E+00   0.00000E+00   0.00000E+00
   0.54869E+02   0.12257E-03   0.52297E-01   0.52297E-01
   0.55849E+02   0.38544E-03   0.62952E-01   0.62952E-01
   0.56829E+02   0.61858E-03   0.71963E-01   0.71963E-01
   0.57809E+02   0.11541E-02   0.12394E+00   0.12394E+00
   0.58789E+02   0.16866E-02   0.93753E-01   0.93753E-01
   0.59768E+02   0.21191E-02   0.75916E-01   0.75916E-01
   0.60748E+02   0.21595E-02   0.70719E-01   0.70719E-01
   0.61728E+02   0.17260E-02   0.34259E-01   0.34259E-01
   0.62708E+02   0.36514E-02   0.18247E+00   0.18247E+00
   0.63688E+02   0.81137E-03   0.25909E+00   0.25909E+00
   0.64668E+02   0.18628E-02   0.63507E-01   0.63507E-01
   0.65647E+02   0.96416E-02   0.14962E+00   0.14962E+00
   0.66627E+02   0.13435E-01   0.71271E-01   0.71271E-01
   0.67607E+02   0.10567E-01   0.34749E-01   0.34749E-01
   0.68587E+02   0.97089E-02   0.24162E-01   0.24162E-01
   0.69567E+02   0.10668E-01   0.19462E-01   0.19462E-01
   0.70546E+02   0.11706E+00   0.83575E-01   0.83575E-01
   0.71526E+02   0.40454E+00   0.25458E+00   0.25458E+00
   0.72506E+02   0.15016E+00   0.11241E+00   0.11241E+00
   0.73486E+02   0.10051E+00   0.77409E-01   0.77409E-01
   0.74466E+02   0.35345E-01   0.24485E-01   0.24485E-01
   0.75445E+02   0.56426E-01   0.65003E-01   0.65003E-01
   0.76425E+02   0.76436E-01   0.99596E-01   0.99596E-01
   0.77405E+02   0.30445E+00   0.53531E+00   0.53531E+00
   0.78385E+02   0.17824E-01   0.11971E-01   0.11971E-01
   0.79365E+02   0.16083E-01   0.10873E-01   0.10873E-01
   0.80345E+02   0.13796E-01   0.93968E-02   0.93968E-02
   0.81324E+02   0.14169E-01   0.97317E-02   0.97317E-02
   0.82304E+02   0.13257E-01   0.91931E-02   0.91931E-02
   0.83284E+02   0.11532E-01   0.80770E-02   0.80770E-02
   0.84264E+02   0.10722E-01   0.75876E-02   0.75876E-02
   0.85244E+02   0.10109E-01   0.72327E-02   0.72327E-02
   0.86223E+02   0.96188E-02   0.69620E-02   0.69620E-02
   0.87203E+02   0.10304E-01   0.75419E-02   0.75419E-02
   0.88183E+02   0.86954E-02   0.64367E-02   0.64367E-02
   0.89163E+02   0.00000E+00   0.00000E+00   0.00000E+00
   0.90143E+02   0.00000E+00   0.00000E+00   0.00000E+00
   0.91122E+02   0.00000E+00   0.00000E+00   0.00000E+00
   0.92102E+02   0.00000E+00   0.00000E+00   0.00000E+00
   0.93082E+02   0.00000E+00   0.00000E+00   0.00000E+00
   0.94062E+02   0.00000E+00   0.00000E+00   0.00000E+00
   0.95042E+02   0.00000E+00   0.00000E+00   0.00000E+00
   0.96022E+02   0.00000E+00   0.00000E+00   0.00000E+00
   0.97001E+02   0.00000E+00   0.00000E+00   0.00000E+00
   0.97981E+02   0.00000E+00   0.00000E+00   0.00000E+00
