 1989

    1
0.0000000000e+00 0.0000000000e+00 0.0000000000e+00
0.0000000000e+00 0.0000000000e+00 0.0000000000e+00
     1      1      1
 1  1  1     3.0450645944e-08
 1  1  2    -1.8396010473e+01
 1  1  3     0.0000000000e+00
 1  2  1    -1.8396010473e+01
 1  2  2    -1.0150215328e-08
 1  2  3     0.0000000000e+00
 1  3  1     0.0000000000e+00
 1  3  2     0.0000000000e+00
 1  3  3     0.0000000000e+00
 2  1  1    -1.8396010473e+01
 2  1  2    -1.0150215328e-08
 2  1  3     0.0000000000e+00
 2  2  1    -1.0150215328e-08
 2  2  2     1.8396010497e+01
 2  2  3     0.0000000000e+00
 2  3  1     0.0000000000e+00
 2  3  2     0.0000000000e+00
 2  3  3     0.0000000000e+00
 3  1  1     0.0000000000e+00
 3  1  2     0.0000000000e+00
 3  1  3     0.0000000000e+00
 3  2  1     0.0000000000e+00
 3  2  2     0.0000000000e+00
 3  2  3     0.0000000000e+00
 3  3  1     0.0000000000e+00
 3  3  2     0.0000000000e+00
 3  3  3     0.0000000000e+00

    2
0.0000000000e+00 0.0000000000e+00 0.0000000000e+00
0.0000000000e+00 0.0000000000e+00 0.0000000000e+00
     1      1      2
 1  1  1    -9.5905817140e+00
 1  1  2     5.4766134739e+00
 1  1  3    -1.0960061206e+01
 1  2  1     4.0315306374e+00
 1  2  2    -2.3625416086e+00
 1  2  3     5.0261346919e+00
 1  3  1    -1.1252120155e+01
 1  3  2     6.6346787734e+00
 1  3  3    -1.0451935745e+01
 2  1  1     4.0315306374e+00
 2  1  2    -2.3625416086e+00
 2  1  3     5.0261346919e+00
 2  2  1    -4.8654985064e+00
 2  2  2     2.8696083356e+00
 2  2  3    -5.1563807790e+00
 2  3  1     6.6346787734e+00
 2  3  2    -3.5910530080e+00
 2  3  3     6.0344279180e+00
 3  1  1    -1.1252120155e+01
 3  1  2     6.6346787734e+00
 3  1  3    -1.0451935745e+01
 3  2  1     6.6346787734e+00
 3  2  2    -3.5910530080e+00
 3  2  3     6.0344279180e+00
 3  3  1    -1.0664713536e+01
 3  3  2     6.1572752330e+00
 3  3  3    -1.0724668996e+01

    3
0.0000000000e+00 0.0000000000e+00 0.0000000000e+00
0.0000000000e+00 0.0000000000e+00 0.0000000000e+00
     1      1      3
 1  1  1    -9.5905817140e+00
 1  1  2     5.4766134739e+00
 1  1  3     1.0960061206e+01
 1  2  1     4.0315306374e+00
 1  2  2    -2.3625416086e+00
 1  2  3    -5.0261346919e+00
 1  3  1     1.1252120155e+01
 1  3  2    -6.6346787734e+00
 1  3  3    -1.0451935745e+01
 2  1  1     4.0315306374e+00
 2  1  2    -2.3625416086e+00
 2  1  3    -5.0261346919e+00
 2  2  1    -4.8654985064e+00
 2  2  2     2.8696083356e+00
 2  2  3     5.1563807790e+00
 2  3  1    -6.6346787734e+00
 2  3  2     3.5910530080e+00
 2  3  3     6.0344279180e+00
 3  1  1     1.1252120155e+01
 3  1  2    -6.6346787734e+00
 3  1  3    -1.0451935745e+01
 3  2  1    -6.6346787734e+00
 3  2  2     3.5910530080e+00
 3  2  3     6.0344279180e+00
 3  3  1    -1.0664713536e+01
 3  3  2     6.1572752330e+00
 3  3  3     1.0724668996e+01

    4
0.0000000000e+00 0.0000000000e+00 0.0000000000e+00
3.1391273690e+00 0.0000000000e+00 0.0000000000e+00
     1      1      1
 1  1  1    -7.7049536994e+00
 1  1  2     2.9543675937e+00
 1  1  3     0.0000000000e+00
 1  2  1     3.2364003243e-01
 1  2  2    -2.7335929260e-01
 1  2  3     0.0000000000e+00
 1  3  1     0.0000000000e+00
 1  3  2     0.0000000000e+00
 1  3  3    -8.5389237644e-01
 2  1  1     3.2364003243e-01
 2  1  2    -2.7335929260e-01
 2  1  3     0.0000000000e+00
 2  2  1     6.7087256592e-01
 2  2  2     2.4885960851e-01
 2  2  3     0.0000000000e+00
 2  3  1     0.0000000000e+00
 2  3  2     0.0000000000e+00
 2  3  3    -1.3712945788e+00
 3  1  1     0.0000000000e+00
 3  1  2     0.0000000000e+00
 3  1  3    -8.5389237644e-01
 3  2  1     0.0000000000e+00
 3  2  2     0.0000000000e+00
 3  2  3    -1.3712945788e+00
 3  3  1    -1.7455436052e+00
 3  3  2    -1.1002939301e+00
 3  3  3     0.0000000000e+00

    5
0.0000000000e+00 0.0000000000e+00 0.0000000000e+00
3.1391273690e+00 0.0000000000e+00 0.0000000000e+00
     1      1      2
 1  1  1     1.0275803028e-02
 1  1  2    -1.2414442000e-01
 1  1  3     8.5066523801e-02
 1  2  1     1.4812646783e-02
 1  2  2     3.9795424150e-02
 1  2  3     5.6756294869e-02
 1  3  1    -1.0771753000e-01
 1  3  2     9.5244251443e-02
 1  3  3    -2.1605836956e-02
 2  1  1     1.4812646783e-02
 2  1  2     3.9795424150e-02
 2  1  3     5.6756294869e-02
 2  2  1     7.2778867620e-02
 2  2  2     3.7036467685e-02
 2  2  3     9.9857643856e-02
 2  3  1    -9.0808154126e-02
 2  3  2    -8.1055499215e-02
 2  3  3     2.0452612378e-01
 3  1  1    -1.0771753000e-01
 3  1  2     9.5244251443e-02
 3  1  3    -2.1605836956e-02
 3  2  1    -9.0808154126e-02
 3  2  2    -8.1055499215e-02
 3  2  3     2.0452612378e-01
 3  3  1     2.0399156631e-01
 3  3  2     7.9409956006e-02
 3  3  3    -1.7188075281e-01

    6
0.0000000000e+00 0.0000000000e+00 0.0000000000e+00
3.1391273690e+00 0.0000000000e+00 0.0000000000e+00
     1      1      3
 1  1  1     1.0275803028e-02
 1  1  2    -1.2414442000e-01
 1  1  3    -8.5066523801e-02
 1  2  1     1.4812646783e-02
 1  2  2     3.9795424150e-02
 1  2  3    -5.6756294869e-02
 1  3  1     1.0771753000e-01
 1  3  2    -9.5244251443e-02
 1  3  3    -2.1605836956e-02
 2  1  1     1.4812646783e-02
 2  1  2     3.9795424150e-02
 2  1  3    -5.6756294869e-02
 2  2  1     7.2778867620e-02
 2  2  2     3.7036467685e-02
 2  2  3    -9.9857643856e-02
 2  3  1     9.0808154126e-02
 2  3  2     8.1055499215e-02
 2  3  3     2.0452612378e-01
 3  1  1     1.0771753000e-01
 3  1  2    -9.5244251443e-02
 3  1  3    -2.1605836956e-02
 3  2  1     9.0808154126e-02
 3  2  2     8.1055499215e-02
 3  2  3     2.0452612378e-01
 3  3  1     2.0399156631e-01
 3  3  2     7.9409956006e-02
 3  3  3     1.7188075281e-01

    7
0.0000000000e+00 0.0000000000e+00 0.0000000000e+00
-6.2782547380e+00 0.0000000000e+00 0.0000000000e+00
     1      1      2
 1  1  1    -1.0275802923e-02
 1  1  2    -1.2414441991e-01
 1  1  3     8.5066523926e-02
 1  2  1     1.4812646908e-02
 1  2  2    -3.9795424191e-02
 1  2  3    -5.6756294979e-02
 1  3  1    -1.0771753000e-01
 1  3  2    -9.5244251354e-02
 1  3  3     2.1605836731e-02
 2  1  1     1.4812646908e-02
 2  1  2    -3.9795424191e-02
 2  1  3    -5.6756294979e-02
 2  2  1    -7.2778867660e-02
 2  2  2     3.7036467685e-02
 2  2  3     9.9857643856e-02
 2  3  1     9.0808154215e-02
 2  3  2    -8.1055499215e-02
 2  3  3     2.0452612378e-01
 3  1  1    -1.0771753000e-01
 3  1  2    -9.5244251354e-02
 3  1  3     2.1605836731e-02
 3  2  1     9.0808154215e-02
 3  2  2    -8.1055499215e-02
 3  2  3     2.0452612378e-01
 3  3  1    -2.0399156640e-01
 3  3  2     7.9409956006e-02
 3  3  3    -1.7188075281e-01

    8
0.0000000000e+00 0.0000000000e+00 0.0000000000e+00
-6.2782547380e+00 0.0000000000e+00 0.0000000000e+00
     1      1      3
 1  1  1    -1.0275802923e-02
 1  1  2    -1.2414441991e-01
 1  1  3    -8.5066523926e-02
 1  2  1     1.4812646908e-02
 1  2  2    -3.9795424191e-02
 1  2  3     5.6756294979e-02
 1  3  1     1.0771753000e-01
 1  3  2     9.5244251354e-02
 1  3  3     2.1605836731e-02
 2  1  1     1.4812646908e-02
 2  1  2    -3.9795424191e-02
 2  1  3     5.6756294979e-02
 2  2  1    -7.2778867660e-02
 2  2  2     3.7036467685e-02
 2  2  3    -9.9857643856e-02
 2  3  1    -9.0808154215e-02
 2  3  2     8.1055499215e-02
 2  3  3     2.0452612378e-01
 3  1  1     1.0771753000e-01
 3  1  2     9.5244251354e-02
 3  1  3     2.1605836731e-02
 3  2  1    -9.0808154215e-02
 3  2  2     8.1055499215e-02
 3  2  3     2.0452612378e-01
 3  3  1    -2.0399156640e-01
 3  3  2     7.9409956006e-02
 3  3  3     1.7188075281e-01

    9
0.0000000000e+00 0.0000000000e+00 0.0000000000e+00
-3.1391273690e+00 0.0000000000e+00 0.0000000000e+00
     1      1      1
 1  1  1     7.7049536954e+00
 1  1  2     2.9543675931e+00
 1  1  3     0.0000000000e+00
 1  2  1     3.2364003287e-01
 1  2  2     2.7335929232e-01
 1  2  3     0.0000000000e+00
 1  3  1     0.0000000000e+00
 1  3  2     0.0000000000e+00
 1  3  3     8.5389237796e-01
 2  1  1     3.2364003287e-01
 2  1  2     2.7335929232e-01
 2  1  3     0.0000000000e+00
 2  2  1    -6.7087256619e-01
 2  2  2     2.4885960851e-01
 2  2  3     0.0000000000e+00
 2  3  1     0.0000000000e+00
 2  3  2     0.0000000000e+00
 2  3  3    -1.3712945788e+00
 3  1  1     0.0000000000e+00
 3  1  2     0.0000000000e+00
 3  1  3     8.5389237796e-01
 3  2  1     0.0000000000e+00
 3  2  2     0.0000000000e+00
 3  2  3    -1.3712945788e+00
 3  3  1     1.7455436064e+00
 3  3  2    -1.1002939301e+00
 3  3  3     0.0000000000e+00

   10
0.0000000000e+00 0.0000000000e+00 0.0000000000e+00
-3.1391273690e+00 0.0000000000e+00 0.0000000000e+00
     1      1      2
 1  1  1     9.5905816991e+00
 1  1  2     5.4766134687e+00
 1  1  3    -1.0960061195e+01
 1  2  1     4.0315306295e+00
 1  2  2     2.3625416054e+00
 1  2  3    -5.0261346862e+00
 1  3  1    -1.1252120141e+01
 1  3  2    -6.6346787695e+00
 1  3  3     1.0451935739e+01
 2  1  1     4.0315306295e+00
 2  1  2     2.3625416054e+00
 2  1  3    -5.0261346862e+00
 2  2  1     4.8654985032e+00
 2  2  2     2.8696083356e+00
 2  2  3    -5.1563807790e+00
 2  3  1    -6.6346787695e+00
 2  3  2    -3.5910530080e+00
 2  3  3     6.0344279180e+00
 3  1  1    -1.1252120141e+01
 3  1  2    -6.6346787695e+00
 3  1  3     1.0451935739e+01
 3  2  1    -6.6346787695e+00
 3  2  2    -3.5910530080e+00
 3  2  3     6.0344279180e+00
 3  3  1     1.0664713529e+01
 3  3  2     6.1572752330e+00
 3  3  3    -1.0724668996e+01

   11
0.0000000000e+00 0.0000000000e+00 0.0000000000e+00
-3.1391273690e+00 0.0000000000e+00 0.0000000000e+00
     1      1      3
 1  1  1     9.5905816991e+00
 1  1  2     5.4766134687e+00
 1  1  3     1.0960061195e+01
 1  2  1     4.0315306295e+00
 1  2  2     2.3625416054e+00
 1  2  3     5.0261346862e+00
 1  3  1     1.1252120141e+01
 1  3  2     6.6346787695e+00
 1  3  3     1.0451935739e+01
 2  1  1     4.0315306295e+00
 2  1  2     2.3625416054e+00
 2  1  3     5.0261346862e+00
 2  2  1     4.8654985032e+00
 2  2  2     2.8696083356e+00
 2  2  3     5.1563807790e+00
 2  3  1     6.6346787695e+00
 2  3  2     3.5910530080e+00
 2  3  3     6.0344279180e+00
 3  1  1     1.1252120141e+01
 3  1  2     6.6346787695e+00
 3  1  3     1.0451935739e+01
 3  2  1     6.6346787695e+00
 3  2  2     3.5910530080e+00
 3  2  3     6.0344279180e+00
 3  3  1     1.0664713529e+01
 3  3  2     6.1572752330e+00
 3  3  3     1.0724668996e+01

   12
0.0000000000e+00 0.0000000000e+00 0.0000000000e+00
-1.5695636860e+00 2.7185640490e+00 0.0000000000e+00
     1      1      1
 1  1  1    -2.4857177415e-02
 1  1  2    -1.3339471328e+00
 1  1  3     0.0000000000e+00
 1  2  1    -8.3631212691e-01
 1  2  2     3.5182144495e+00
 1  2  3     0.0000000000e+00
 1  3  1     0.0000000000e+00
 1  3  2     0.0000000000e+00
 1  3  3     1.6145221292e+00
 2  1  1    -8.3631212691e-01
 2  1  2     3.5182144495e+00
 2  1  3     0.0000000000e+00
 2  2  1     7.6782162074e-01
 2  2  2    -6.3593594367e+00
 2  2  3     0.0000000000e+00
 2  3  1     0.0000000000e+00
 2  3  2     0.0000000000e+00
 2  3  3    -5.3845201819e-02
 3  1  1     0.0000000000e+00
 3  1  2     0.0000000000e+00
 3  1  3     1.6145221292e+00
 3  2  1     0.0000000000e+00
 3  2  2     0.0000000000e+00
 3  2  3    -5.3845201819e-02
 3  3  1     1.8256542979e+00
 3  3  2    -9.6153814195e-01
 3  3  3     0.0000000000e+00

   13
0.0000000000e+00 0.0000000000e+00 0.0000000000e+00
-1.5695636860e+00 2.7185640490e+00 0.0000000000e+00
     1      1      2
 1  1  1     1.6948461562e-09
 1  1  2    -2.9506771378e+00
 1  1  3    -2.2545405585e+00
 1  2  1    -6.0511462214e-02
 1  2  2     7.5821823460e-09
 1  2  3     7.6484683092e-09
 1  3  1     2.3948056880e-01
 1  3  2     8.3220328098e-09
 1  3  3     6.6591336552e-09
 2  1  1    -6.0511462214e-02
 2  1  2     7.5821821930e-09
 2  1  3     7.6484683092e-09
 2  2  1     7.5821826317e-09
 2  2  2    -1.3741766486e+01
 2  2  3    -1.3861901432e+01
 2  3  1     8.3220328098e-09
 2  3  2    -1.5082653739e+01
 2  3  3    -1.2068855836e+01
 3  1  1     2.3948056880e-01
 3  1  2     8.3220328098e-09
 3  1  3     6.6591336552e-09
 3  2  1     8.3220328098e-09
 3  2  2    -1.5082653739e+01
 3  2  3    -1.2068855836e+01
 3  3  1     6.7946985671e-09
 3  3  2    -1.2314550466e+01
 3  3  3    -1.0724668996e+01

   14
0.0000000000e+00 0.0000000000e+00 0.0000000000e+00
-1.5695636860e+00 2.7185640490e+00 0.0000000000e+00
     1      1      3
 1  1  1     1.6948461562e-09
 1  1  2    -2.9506771378e+00
 1  1  3     2.2545405585e+00
 1  2  1    -6.0511462214e-02
 1  2  2     7.5821823460e-09
 1  2  3    -7.6484683092e-09
 1  3  1    -2.3948056880e-01
 1  3  2    -8.3220328098e-09
 1  3  3     6.6591336552e-09
 2  1  1    -6.0511462214e-02
 2  1  2     7.5821821930e-09
 2  1  3    -7.6484683092e-09
 2  2  1     7.5821826317e-09
 2  2  2    -1.3741766486e+01
 2  2  3     1.3861901432e+01
 2  3  1    -8.3220328098e-09
 2  3  2     1.5082653739e+01
 2  3  3    -1.2068855836e+01
 3  1  1    -2.3948056880e-01
 3  1  2    -8.3220328098e-09
 3  1  3     6.6591336552e-09
 3  2  1    -8.3220328098e-09
 3  2  2     1.5082653739e+01
 3  2  3    -1.2068855836e+01
 3  3  1     6.7946985671e-09
 3  3  2    -1.2314550466e+01
 3  3  3     1.0724668996e+01

   15
0.0000000000e+00 0.0000000000e+00 0.0000000000e+00
1.5695636830e+00 2.7185640490e+00 0.0000000000e+00
     1      1      1
 1  1  1     2.4857180733e-02
 1  1  2    -1.3339471250e+00
 1  1  3     0.0000000000e+00
 1  2  1    -8.3631212218e-01
 1  2  2    -3.5182144425e+00
 1  2  3     0.0000000000e+00
 1  3  1     0.0000000000e+00
 1  3  2     0.0000000000e+00
 1  3  3    -1.6145221291e+00
 2  1  1    -8.3631212218e-01
 2  1  2    -3.5182144425e+00
 2  1  3     0.0000000000e+00
 2  2  1    -7.6782161372e-01
 2  2  2    -6.3593594367e+00
 2  2  3     0.0000000000e+00
 2  3  1     0.0000000000e+00
 2  3  2     0.0000000000e+00
 2  3  3    -5.3845201819e-02
 3  1  1     0.0000000000e+00
 3  1  2     0.0000000000e+00
 3  1  3    -1.6145221291e+00
 3  2  1     0.0000000000e+00
 3  2  2     0.0000000000e+00
 3  2  3    -5.3845201819e-02
 3  3  1    -1.8256542969e+00
 3  3  2    -9.6153814195e-01
 3  3  3     0.0000000000e+00

   16
0.0000000000e+00 0.0000000000e+00 0.0000000000e+00
1.5695636830e+00 2.7185640490e+00 0.0000000000e+00
     1      1      2
 1  1  1     2.6289351987e-01
 1  1  2    -2.9879359671e-01
 1  1  3    -2.2755137695e-01
 1  2  1    -2.1678075056e-01
 1  2  2     1.3498131180e-01
 1  2  3    -5.5510781260e-02
 1  3  1    -3.7873411387e-01
 1  3  2    -6.4593476571e-02
 1  3  3     4.4295579148e-02
 2  1  1    -2.1678075056e-01
 2  1  2     1.3498131180e-01
 2  1  3    -5.5510781260e-02
 2  2  1    -7.0691045455e-03
 2  2  2     4.4649389219e-01
 2  2  3    -1.6345304815e-01
 2  3  1    -6.4593476571e-02
 2  3  2    -3.0414799201e-01
 2  3  3     2.5574064569e-02
 3  1  1    -3.7873411387e-01
 3  1  2    -6.4593476571e-02
 3  1  3     4.4295579148e-02
 3  2  1    -6.4593476571e-02
 3  2  2    -3.0414799201e-01
 3  2  3     2.5574064569e-02
 3  3  1    -8.8615034323e-02
 3  3  2    -5.1161913969e-02
 3  3  3    -5.4647895591e-02

   17
0.0000000000e+00 0.0000000000e+00 0.0000000000e+00
1.5695636830e+00 2.7185640490e+00 0.0000000000e+00
     1      1      3
 1  1  1     2.6289351987e-01
 1  1  2    -2.9879359671e-01
 1  1  3     2.2755137695e-01
 1  2  1    -2.1678075056e-01
 1  2  2     1.3498131180e-01
 1  2  3     5.5510781260e-02
 1  3  1     3.7873411387e-01
 1  3  2     6.4593476571e-02
 1  3  3     4.4295579148e-02
 2  1  1    -2.1678075056e-01
 2  1  2     1.3498131180e-01
 2  1  3     5.5510781260e-02
 2  2  1    -7.0691045455e-03
 2  2  2     4.4649389219e-01
 2  2  3     1.6345304815e-01
 2  3  1     6.4593476571e-02
 2  3  2     3.0414799201e-01
 2  3  3     2.5574064569e-02
 3  1  1     3.7873411387e-01
 3  1  2     6.4593476571e-02
 3  1  3     4.4295579148e-02
 3  2  1     6.4593476571e-02
 3  2  2     3.0414799201e-01
 3  2  3     2.5574064569e-02
 3  3  1    -8.8615034323e-02
 3  3  2    -5.1161913969e-02
 3  3  3     5.4647895591e-02

   18
0.0000000000e+00 0.0000000000e+00 0.0000000000e+00
4.7086910520e+00 2.7185640490e+00 0.0000000000e+00
     1      1      1
 1  1  1     1.9359112719e-01
 1  1  2     1.4390813437e-01
 1  1  3     0.0000000000e+00
 1  2  1    -3.4139428791e-02
 1  2  2    -3.8265432729e-02
 1  2  3     0.0000000000e+00
 1  3  1     0.0000000000e+00
 1  3  2     0.0000000000e+00
 1  3  3    -3.0215605160e-02
 2  1  1    -3.4139428791e-02
 2  1  2    -3.8265432729e-02
 2  1  3     0.0000000000e+00
 2  2  1     2.7012199273e-01
 2  2  2     1.2381676048e-01
 2  2  3     0.0000000000e+00
 2  3  1     0.0000000000e+00
 2  3  2     0.0000000000e+00
 2  3  3    -1.7444987790e-02
 3  1  1     0.0000000000e+00
 3  1  2     0.0000000000e+00
 3  1  3    -3.0215605160e-02
 3  2  1     0.0000000000e+00
 3  2  2     0.0000000000e+00
 3  2  3    -1.7444987790e-02
 3  3  1     7.8730120876e-02
 3  3  2     4.5454856525e-02
 3  3  3     0.0000000000e+00

   19
0.0000000000e+00 0.0000000000e+00 0.0000000000e+00
-4.7086910550e+00 2.7185640490e+00 0.0000000000e+00
     1      1      1
 1  1  1    -1.9359112727e-01
 1  1  2     1.4390813428e-01
 1  1  3     0.0000000000e+00
 1  2  1    -3.4139428535e-02
 1  2  2     3.8265432593e-02
 1  2  3     0.0000000000e+00
 1  3  1     0.0000000000e+00
 1  3  2     0.0000000000e+00
 1  3  3     3.0215605179e-02
 2  1  1    -3.4139428535e-02
 2  1  2     3.8265432593e-02
 2  1  3     0.0000000000e+00
 2  2  1    -2.7012199287e-01
 2  2  2     1.2381676048e-01
 2  2  3     0.0000000000e+00
 2  3  1     0.0000000000e+00
 2  3  2     0.0000000000e+00
 2  3  3    -1.7444987790e-02
 3  1  1     0.0000000000e+00
 3  1  2     0.0000000000e+00
 3  1  3     3.0215605179e-02
 3  2  1     0.0000000000e+00
 3  2  2     0.0000000000e+00
 3  2  3    -1.7444987790e-02
 3  3  1    -7.8730120927e-02
 3  3  2     4.5454856525e-02
 3  3  3     0.0000000000e+00

   20
0.0000000000e+00 0.0000000000e+00 0.0000000000e+00
-4.7086910550e+00 2.7185640490e+00 0.0000000000e+00
     1      1      2
 1  1  1    -2.6289351906e-01
 1  1  2    -2.9879359641e-01
 1  1  3    -2.2755137708e-01
 1  2  1    -2.1678075042e-01
 1  2  2    -1.3498131230e-01
 1  2  3     5.5510781440e-02
 1  3  1    -3.7873411402e-01
 1  3  2     6.4593476907e-02
 1  3  3    -4.4295579176e-02
 2  1  1    -2.1678075042e-01
 2  1  2    -1.3498131230e-01
 2  1  3     5.5510781440e-02
 2  2  1     7.0691040528e-03
 2  2  2     4.4649389219e-01
 2  2  3    -1.6345304815e-01
 2  3  1     6.4593476907e-02
 2  3  2    -3.0414799201e-01
 2  3  3     2.5574064569e-02
 3  1  1    -3.7873411402e-01
 3  1  2     6.4593476907e-02
 3  1  3    -4.4295579176e-02
 3  2  1     6.4593476907e-02
 3  2  2    -3.0414799201e-01
 3  2  3     2.5574064569e-02
 3  3  1     8.8615034379e-02
 3  3  2    -5.1161913969e-02
 3  3  3    -5.4647895591e-02

   21
0.0000000000e+00 0.0000000000e+00 0.0000000000e+00
-4.7086910550e+00 2.7185640490e+00 0.0000000000e+00
     1      1      3
 1  1  1    -2.6289351906e-01
 1  1  2    -2.9879359641e-01
 1  1  3     2.2755137708e-01
 1  2  1    -2.1678075042e-01
 1  2  2    -1.3498131230e-01
 1  2  3    -5.5510781440e-02
 1  3  1     3.7873411402e-01
 1  3  2    -6.4593476907e-02
 1  3  3    -4.4295579176e-02
 2  1  1    -2.1678075042e-01
 2  1  2    -1.3498131230e-01
 2  1  3    -5.5510781440e-02
 2  2  1     7.0691040528e-03
 2  2  2     4.4649389219e-01
 2  2  3     1.6345304815e-01
 2  3  1    -6.4593476907e-02
 2  3  2     3.0414799201e-01
 2  3  3     2.5574064569e-02
 3  1  1     3.7873411402e-01
 3  1  2    -6.4593476907e-02
 3  1  3    -4.4295579176e-02
 3  2  1    -6.4593476907e-02
 3  2  2     3.0414799201e-01
 3  2  3     2.5574064569e-02
 3  3  1     8.8615034379e-02
 3  3  2    -5.1161913969e-02
 3  3  3     5.4647895591e-02

   22
0.0000000000e+00 0.0000000000e+00 0.0000000000e+00
-3.1391273720e+00 5.4371280980e+00 0.0000000000e+00
     1      1      2
 1  1  1    -6.2015019015e-02
 1  1  2     4.5002975893e-02
 1  1  3     1.4531225698e-01
 1  2  1    -5.3040057494e-02
 1  2  2    -7.9232448256e-03
 1  2  3    -2.1973404703e-02
 1  3  1    -8.5800120400e-02
 1  3  2     1.0346217658e-01
 1  3  3    -1.6632190033e-01
 2  1  1    -5.3040057494e-02
 2  1  2    -7.9232448256e-03
 2  1  3    -2.1973404703e-02
 2  2  1     9.5925383400e-02
 2  2  2     7.0478454984e-02
 2  2  3     3.9611910683e-02
 2  3  1    -8.2590228994e-02
 2  3  2    -1.0297290885e-01
 2  3  3    -1.2097426548e-01
 3  1  1    -8.5800120400e-02
 3  1  2     1.0346217658e-01
 3  1  3    -1.6632190033e-01
 3  2  1    -8.2590228994e-02
 3  2  2    -1.0297290885e-01
 3  2  3    -1.2097426548e-01
 3  3  1    -1.7076682242e-01
 3  3  2     1.3695690073e-01
 3  3  3    -1.7188075281e-01

   23
0.0000000000e+00 0.0000000000e+00 0.0000000000e+00
-3.1391273720e+00 5.4371280980e+00 0.0000000000e+00
     1      1      3
 1  1  1    -6.2015019015e-02
 1  1  2     4.5002975893e-02
 1  1  3    -1.4531225698e-01
 1  2  1    -5.3040057494e-02
 1  2  2    -7.9232448256e-03
 1  2  3     2.1973404703e-02
 1  3  1     8.5800120400e-02
 1  3  2    -1.0346217658e-01
 1  3  3    -1.6632190033e-01
 2  1  1    -5.3040057494e-02
 2  1  2    -7.9232448256e-03
 2  1  3     2.1973404703e-02
 2  2  1     9.5925383400e-02
 2  2  2     7.0478454984e-02
 2  2  3    -3.9611910683e-02
 2  3  1     8.2590228994e-02
 2  3  2     1.0297290885e-01
 2  3  3    -1.2097426548e-01
 3  1  1     8.5800120400e-02
 3  1  2    -1.0346217658e-01
 3  1  3    -1.6632190033e-01
 3  2  1     8.2590228994e-02
 3  2  2     1.0297290885e-01
 3  2  3    -1.2097426548e-01
 3  3  1    -1.7076682242e-01
 3  3  2     1.3695690073e-01
 3  3  3     1.7188075281e-01

   24
0.0000000000e+00 0.0000000000e+00 0.0000000000e+00
-3.0000002482e-09 5.4371280980e+00 0.0000000000e+00
     1      1      1
 1  1  1     2.7346415803e-10
 1  1  2    -5.8482241446e-02
 1  1  3     0.0000000000e+00
 1  2  1    -2.1856886947e-01
 1  2  2    -4.9689865046e-11
 1  2  3     0.0000000000e+00
 1  3  1     0.0000000000e+00
 1  3  2     0.0000000000e+00
 1  3  3     2.3508126146e-11
 2  1  1    -2.1856886947e-01
 2  1  2    -4.9689865046e-11
 2  1  3     0.0000000000e+00
 2  2  1    -4.9689865046e-11
 2  2  2     9.0056737661e-02
 2  2  3     0.0000000000e+00
 2  3  1     0.0000000000e+00
 2  3  2     0.0000000000e+00
 2  3  3    -4.2605572530e-02
 3  1  1     0.0000000000e+00
 3  1  2     0.0000000000e+00
 3  1  3     2.3508126146e-11
 3  2  1     0.0000000000e+00
 3  2  2     0.0000000000e+00
 3  2  3    -4.2605572530e-02
 3  3  1     1.0494268944e-10
 3  3  2    -1.9019565143e-01
 3  3  3     0.0000000000e+00

   25
0.0000000000e+00 0.0000000000e+00 0.0000000000e+00
-2.9999996931e-09 5.4371280980e+00 0.0000000000e+00
     1      1      2
 1  1  1     6.2015019083e-02
 1  1  2     4.5002975876e-02
 1  1  3     1.4531225694e-01
 1  2  1    -5.3040057397e-02
 1  2  2     7.9232447478e-03
 1  2  3     2.1973404659e-02
 1  3  1    -8.5800120377e-02
 1  3  2    -1.0346217646e-01
 1  3  3     1.6632190046e-01
 2  1  1    -5.3040057397e-02
 2  1  2     7.9232447478e-03
 2  1  3     2.1973404659e-02
 2  2  1    -9.5925383478e-02
 2  2  2     7.0478454984e-02
 2  2  3     3.9611910683e-02
 2  3  1     8.2590229108e-02
 2  3  2    -1.0297290885e-01
 2  3  3    -1.2097426548e-01
 3  1  1    -8.5800120377e-02
 3  1  2    -1.0346217646e-01
 3  1  3     1.6632190046e-01
 3  2  1     8.2590229108e-02
 3  2  2    -1.0297290885e-01
 3  2  3    -1.2097426548e-01
 3  3  1     1.7076682227e-01
 3  3  2     1.3695690073e-01
 3  3  3    -1.7188075281e-01

   26
0.0000000000e+00 0.0000000000e+00 0.0000000000e+00
-2.9999996931e-09 5.4371280980e+00 0.0000000000e+00
     1      1      3
 1  1  1     6.2015019083e-02
 1  1  2     4.5002975876e-02
 1  1  3    -1.4531225694e-01
 1  2  1    -5.3040057397e-02
 1  2  2     7.9232447478e-03
 1  2  3    -2.1973404659e-02
 1  3  1     8.5800120377e-02
 1  3  2     1.0346217646e-01
 1  3  3     1.6632190046e-01
 2  1  1    -5.3040057397e-02
 2  1  2     7.9232447478e-03
 2  1  3    -2.1973404659e-02
 2  2  1    -9.5925383478e-02
 2  2  2     7.0478454984e-02
 2  2  3    -3.9611910683e-02
 2  3  1    -8.2590229108e-02
 2  3  2     1.0297290885e-01
 2  3  3    -1.2097426548e-01
 3  1  1     8.5800120377e-02
 3  1  2     1.0346217646e-01
 3  1  3     1.6632190046e-01
 3  2  1    -8.2590229108e-02
 3  2  2     1.0297290885e-01
 3  2  3    -1.2097426548e-01
 3  3  1     1.7076682227e-01
 3  3  2     1.3695690073e-01
 3  3  3     1.7188075281e-01

   27
0.0000000000e+00 0.0000000000e+00 0.0000000000e+00
2.9999996931e-09 -5.4371280980e+00 0.0000000000e+00
     1      1      1
 1  1  1     1.4328171270e-10
 1  1  2    -3.2395688114e-01
 1  1  3     0.0000000000e+00
 1  2  1     3.2138244838e-02
 1  2  2     1.1669368005e-10
 1  2  3     0.0000000000e+00
 1  3  1     0.0000000000e+00
 1  3  2     0.0000000000e+00
 1  3  3    -1.9250953892e-11
 2  1  1     3.2138244838e-02
 2  1  2     1.1669368586e-10
 2  1  3     0.0000000000e+00
 2  2  1     1.1669372897e-10
 2  2  2    -2.1149290842e-01
 2  2  3     0.0000000000e+00
 2  3  1     0.0000000000e+00
 2  3  2     0.0000000000e+00
 2  3  3     3.4889975579e-02
 3  1  1     0.0000000000e+00
 3  1  2     0.0000000000e+00
 3  1  3    -1.9250953892e-11
 3  2  1     0.0000000000e+00
 3  2  2     0.0000000000e+00
 3  2  3     3.4889975579e-02
 3  3  1     5.0160502128e-11
 3  3  2    -9.0909713049e-02
 3  3  3     0.0000000000e+00

   28
0.0000000000e+00 0.0000000000e+00 0.0000000000e+00
1.5695636860e+00 -2.7185640490e+00 0.0000000000e+00
     1      1      1
 1  1  1    -1.8579801215e+00
 1  1  2     8.9417057630e-01
 1  1  3     0.0000000000e+00
 1  2  1     3.0272631337e+00
 1  2  2    -2.6269756147e+00
 1  2  3     0.0000000000e+00
 1  3  1     0.0000000000e+00
 1  3  2     0.0000000000e+00
 1  3  3     7.6062975118e-01
 2  1  1     3.0272631337e+00
 2  1  2    -2.6269756147e+00
 2  1  3     0.0000000000e+00
 2  2  1    -4.4331365850e+00
 2  2  2     3.5959087870e+00
 2  2  3     0.0000000000e+00
 2  3  1     0.0000000000e+00
 2  3  2     0.0000000000e+00
 2  3  3     1.4251397806e+00
 3  1  1     0.0000000000e+00
 3  1  2     0.0000000000e+00
 3  1  3     7.6062975118e-01
 3  2  1     0.0000000000e+00
 3  2  2     0.0000000000e+00
 3  2  3     1.4251397806e+00
 3  3  1     8.0110690454e-02
 3  3  2     2.0618320720e+00
 3  3  3     0.0000000000e+00

   29
0.0000000000e+00 0.0000000000e+00 0.0000000000e+00
1.5695636860e+00 -2.7185640490e+00 0.0000000000e+00
     1      1      2
 1  1  1     5.4831218613e-02
 1  1  2    -1.9525251274e-02
 1  1  3     4.7007470527e-02
 1  2  1    -6.0439284819e-02
 1  2  2    -7.4698255356e-02
 1  2  3     3.4782890167e-02
 1  3  1    -8.9641893293e-02
 1  3  2    -8.0372180382e-02
 1  3  3    -1.8792773719e-01
 2  1  1    -6.0439284819e-02
 2  1  2    -7.4698255356e-02
 2  1  3     3.4782890167e-02
 2  2  1     6.2133816339e-02
 2  2  2    -8.8482271185e-03
 2  2  3     1.3791669720e-01
 2  3  1     1.0568022519e-01
 2  3  2    -9.9131135960e-02
 2  3  3    -8.3551858300e-02
 3  1  1    -8.9641893293e-02
 3  1  2    -8.0372180382e-02
 3  1  3    -1.8792773719e-01
 3  2  1     1.0568022519e-01
 3  2  2    -9.9131135960e-02
 3  2  3    -8.3551858300e-02
 3  3  1     3.3224744125e-02
 3  3  2    -2.1636685673e-01
 3  3  3    -1.7188075281e-01

   30
0.0000000000e+00 0.0000000000e+00 0.0000000000e+00
1.5695636860e+00 -2.7185640490e+00 0.0000000000e+00
     1      1      3
 1  1  1     5.4831218613e-02
 1  1  2    -1.9525251274e-02
 1  1  3    -4.7007470527e-02
 1  2  1    -6.0439284819e-02
 1  2  2    -7.4698255356e-02
 1  2  3    -3.4782890167e-02
 1  3  1     8.9641893293e-02
 1  3  2     8.0372180382e-02
 1  3  3    -1.8792773719e-01
 2  1  1    -6.0439284819e-02
 2  1  2    -7.4698255356e-02
 2  1  3    -3.4782890167e-02
 2  2  1     6.2133816339e-02
 2  2  2    -8.8482271185e-03
 2  2  3    -1.3791669720e-01
 2  3  1    -1.0568022519e-01
 2  3  2     9.9131135960e-02
 2  3  3    -8.3551858300e-02
 3  1  1     8.9641893293e-02
 3  1  2     8.0372180382e-02
 3  1  3    -1.8792773719e-01
 3  2  1    -1.0568022519e-01
 3  2  2     9.9131135960e-02
 3  2  3    -8.3551858300e-02
 3  3  1     3.3224744125e-02
 3  3  2    -2.1636685673e-01
 3  3  3     1.7188075281e-01

   31
0.0000000000e+00 0.0000000000e+00 0.0000000000e+00
4.7086910550e+00 -2.7185640490e+00 0.0000000000e+00
     1      1      1
 1  1  1    -4.8811306278e-02
 1  1  2    -1.9038764843e-01
 1  1  3     0.0000000000e+00
 1  2  1    -1.1034433450e-01
 1  2  2    -6.2483464540e-02
 1  2  3     0.0000000000e+00
 1  3  1     0.0000000000e+00
 1  3  2     0.0000000000e+00
 1  3  3    -3.6897508142e-02
 2  1  1    -1.1034433450e-01
 2  1  2    -6.2483464540e-02
 2  1  3     0.0000000000e+00
 2  2  1     7.6155622223e-02
 2  2  2     1.7460040067e-01
 2  2  3     0.0000000000e+00
 2  3  1     0.0000000000e+00
 2  3  2     0.0000000000e+00
 2  3  3     2.1302786265e-02
 3  1  1     0.0000000000e+00
 3  1  2     0.0000000000e+00
 3  1  3    -3.6897508142e-02
 3  2  1     0.0000000000e+00
 3  2  2     0.0000000000e+00
 3  2  3     2.1302786265e-02
 3  3  1    -1.6471426578e-01
 3  3  2     9.5097825716e-02
 3  3  3     0.0000000000e+00

   32
0.0000000000e+00 0.0000000000e+00 0.0000000000e+00
-4.7086910520e+00 -2.7185640490e+00 0.0000000000e+00
     1      1      1
 1  1  1     4.8811306732e-02
 1  1  2    -1.9038764857e-01
 1  1  3     0.0000000000e+00
 1  2  1    -1.1034433448e-01
 1  2  2     6.2483464347e-02
 1  2  3     0.0000000000e+00
 1  3  1     0.0000000000e+00
 1  3  2     0.0000000000e+00
 1  3  3     3.6897508119e-02
 2  1  1    -1.1034433448e-01
 2  1  2     6.2483464347e-02
 2  1  3     0.0000000000e+00
 2  2  1    -7.6155622416e-02
 2  2  2     1.7460040067e-01
 2  2  3     0.0000000000e+00
 2  3  1     0.0000000000e+00
 2  3  2     0.0000000000e+00
 2  3  3     2.1302786265e-02
 3  1  1     0.0000000000e+00
 3  1  2     0.0000000000e+00
 3  1  3     3.6897508119e-02
 3  2  1     0.0000000000e+00
 3  2  2     0.0000000000e+00