 2918

    1
0.0000000000e+00 0.0000000000e+00 0.0000000000e+00
0.0000000000e+00 0.0000000000e+00 0.0000000000e+00
     1      1      1
 1  1  1     0.0000000000e+00
 1  1  2     0.0000000000e+00
 1  1  3     0.0000000000e+00
 1  2  1     0.0000000000e+00
 1  2  2     0.0000000000e+00
 1  2  3     0.0000000000e+00
 1  3  1     0.0000000000e+00
 1  3  2     0.0000000000e+00
 1  3  3     0.0000000000e+00
 2  1  1     0.0000000000e+00
 2  1  2     0.0000000000e+00
 2  1  3     0.0000000000e+00
 2  2  1     0.0000000000e+00
 2  2  2     0.0000000000e+00
 2  2  3     0.0000000000e+00
 2  3  1     0.0000000000e+00
 2  3  2     0.0000000000e+00
 2  3  3     0.0000000000e+00
 3  1  1     0.0000000000e+00
 3  1  2     0.0000000000e+00
 3  1  3     0.0000000000e+00
 3  2  1     0.0000000000e+00
 3  2  2     0.0000000000e+00
 3  2  3     0.0000000000e+00
 3  3  1     0.0000000000e+00
 3  3  2     0.0000000000e+00
 3  3  3     0.0000000000e+00

    2
0.0000000000e+00 0.0000000000e+00 0.0000000000e+00
0.0000000000e+00 0.0000000000e+00 0.0000000000e+00
     1      1      2
 1  1  1     1.3082338694e-02
 1  1  2     1.6184446168e-02
 1  1  3     1.6184446168e-02
 1  2  1     1.0675074843e-02
 1  2  2    -1.0675074843e-02
 1  2  3    -2.0065997652e-02
 1  3  1     1.0675074843e-02
 1  3  2    -2.0065997652e-02
 1  3  3    -1.0675074843e-02
 2  1  1     1.0675074843e-02
 2  1  2    -1.0675074843e-02
 2  1  3    -2.0065997652e-02
 2  2  1    -1.6184446168e-02
 2  2  2    -1.3082338694e-02
 2  2  3     1.6184446168e-02
 2  3  1    -2.0065997652e-02
 2  3  2     1.0675074843e-02
 2  3  3     1.0675074843e-02
 3  1  1     1.0675074843e-02
 3  1  2    -2.0065997652e-02
 3  1  3    -1.0675074843e-02
 3  2  1    -2.0065997652e-02
 3  2  2     1.0675074843e-02
 3  2  3     1.0675074843e-02
 3  3  1    -1.6184446168e-02
 3  3  2     1.6184446168e-02
 3  3  3    -1.3082338694e-02

    3
0.0000000000e+00 0.0000000000e+00 0.0000000000e+00
-3.1205166888e+00 0.0000000000e+00 3.1205166888e+00
     1      1      1
 1  1  1     1.4141067939e-02
 1  1  2     0.0000000000e+00
 1  1  3    -1.1367425480e-01
 1  2  1     0.0000000000e+00
 1  2  2    -4.0526183646e-02
 1  2  3     0.0000000000e+00
 1  3  1    -8.7852726741e-02
 1  3  2     0.0000000000e+00
 1  3  3     8.7852726741e-02
 2  1  1     0.0000000000e+00
 2  1  2    -4.0526183646e-02
 2  1  3     0.0000000000e+00
 2  2  1    -4.1759914346e-02
 2  2  2     0.0000000000e+00
 2  2  3     4.1759914346e-02
 2  3  1     0.0000000000e+00
 2  3  2     4.0526183646e-02
 2  3  3     0.0000000000e+00
 3  1  1    -8.7852726741e-02
 3  1  2     0.0000000000e+00
 3  1  3     8.7852726741e-02
 3  2  1     0.0000000000e+00
 3  2  2     4.0526183646e-02
 3  2  3     0.0000000000e+00
 3  3  1     1.1367425480e-01
 3  3  2     0.0000000000e+00
 3  3  3    -1.4141067939e-02

    4
0.0000000000e+00 0.0000000000e+00 0.0000000000e+00
6.2410333776e+00 0.0000000000e+00 -6.2410333776e+00
     1      1      2
 1  1  1    -1.3082338694e-02
 1  1  2     1.6184446168e-02
 1  1  3    -1.6184446168e-02
 1  2  1     1.0675074843e-02
 1  2  2     1.0675074843e-02
 1  2  3    -2.0065997652e-02
 1  3  1    -1.0675074843e-02
 1  3  2    -2.0065997652e-02
 1  3  3     1.0675074843e-02
 2  1  1     1.0675074843e-02
 2  1  2     1.0675074843e-02
 2  1  3    -2.0065997652e-02
 2  2  1     1.6184446168e-02
 2  2  2    -1.3082338694e-02
 2  2  3    -1.6184446168e-02
 2  3  1    -2.0065997652e-02
 2  3  2    -1.0675074843e-02
 2  3  3     1.0675074843e-02
 3  1  1    -1.0675074843e-02
 3  1  2    -2.0065997652e-02
 3  1  3     1.0675074843e-02
 3  2  1    -2.0065997652e-02
 3  2  2    -1.0675074843e-02
 3  2  3     1.0675074843e-02
 3  3  1     1.6184446168e-02
 3  3  2     1.6184446168e-02
 3  3  3     1.3082338694e-02

    5
0.0000000000e+00 0.0000000000e+00 0.0000000000e+00
3.1205166888e+00 0.0000000000e+00 -3.1205166888e+00
     1      1      1
 1  1  1    -1.4141067939e-02
 1  1  2     0.0000000000e+00
 1  1  3     1.1367425480e-01
 1  2  1     0.0000000000e+00
 1  2  2     4.0526183646e-02
 1  2  3     0.0000000000e+00
 1  3  1     8.7852726741e-02
 1  3  2     0.0000000000e+00
 1  3  3    -8.7852726741e-02
 2  1  1     0.0000000000e+00
 2  1  2     4.0526183646e-02
 2  1  3     0.0000000000e+00
 2  2  1     4.1759914346e-02
 2  2  2     0.0000000000e+00
 2  2  3    -4.1759914346e-02
 2  3  1     0.0000000000e+00
 2  3  2    -4.0526183646e-02
 2  3  3     0.0000000000e+00
 3  1  1     8.7852726741e-02
 3  1  2     0.0000000000e+00
 3  1  3    -8.7852726741e-02
 3  2  1     0.0000000000e+00
 3  2  2    -4.0526183646e-02
 3  2  3     0.0000000000e+00
 3  3  1    -1.1367425480e-01
 3  3  2     0.0000000000e+00
 3  3  3     1.4141067939e-02

    6
0.0000000000e+00 0.0000000000e+00 0.0000000000e+00
3.1205166888e+00 0.0000000000e+00 -3.1205166888e+00
     1      1      2
 1  1  1     0.0000000000e+00
 1  1  2     1.8530973077e-01
 1  1  3     0.0000000000e+00
 1  2  1     1.2659960182e-01
 1  2  2     0.0000000000e+00
 1  2  3     0.0000000000e+00
 1  3  1     0.0000000000e+00
 1  3  2     0.0000000000e+00
 1  3  3     0.0000000000e+00
 2  1  1     1.2659960182e-01
 2  1  2     0.0000000000e+00
 2  1  3     0.0000000000e+00
 2  2  1     0.0000000000e+00
 2  2  2    -3.6962538964e+00
 2  2  3     0.0000000000e+00
 2  3  1     0.0000000000e+00
 2  3  2     0.0000000000e+00
 2  3  3     1.2659960182e-01
 3  1  1     0.0000000000e+00
 3  1  2     0.0000000000e+00
 3  1  3     0.0000000000e+00
 3  2  1     0.0000000000e+00
 3  2  2     0.0000000000e+00
 3  2  3     1.2659960182e-01
 3  3  1     0.0000000000e+00
 3  3  2     1.8530973077e-01
 3  3  3     0.0000000000e+00

    7
0.0000000000e+00 0.0000000000e+00 0.0000000000e+00
0.0000000000e+00 3.1205166888e+00 3.1205166888e+00
     1      1      1
 1  1  1     0.0000000000e+00
 1  1  2     4.1759914346e-02
 1  1  3     4.1759914346e-02
 1  2  1     4.0526183646e-02
 1  2  2     0.0000000000e+00
 1  2  3     0.0000000000e+00
 1  3  1     4.0526183646e-02
 1  3  2     0.0000000000e+00
 1  3  3     0.0000000000e+00
 2  1  1     4.0526183646e-02
 2  1  2     0.0000000000e+00
 2  1  3     0.0000000000e+00
 2  2  1     0.0000000000e+00
 2  2  2    -1.4141067939e-02
 2  2  3    -1.1367425480e-01
 2  3  1     0.0000000000e+00
 2  3  2    -8.7852726741e-02
 2  3  3    -8.7852726741e-02
 3  1  1     4.0526183646e-02
 3  1  2     0.0000000000e+00
 3  1  3     0.0000000000e+00
 3  2  1     0.0000000000e+00
 3  2  2    -8.7852726741e-02
 3  2  3    -8.7852726741e-02
 3  3  1     0.0000000000e+00
 3  3  2    -1.1367425480e-01
 3  3  3    -1.4141067939e-02

    8
0.0000000000e+00 0.0000000000e+00 0.0000000000e+00
6.2410333776e+00 3.1205166888e+00 -3.1205166888e+00
     1      1      2
 1  1  1    -1.0079354451e-02
 1  1  2     3.5976467294e-03
 1  1  3     0.0000000000e+00
 1  2  1    -2.4220522881e-03
 1  2  2     7.0603423120e-03
 1  2  3     0.0000000000e+00
 1  3  1     0.0000000000e+00
 1  3  2     0.0000000000e+00
 1  3  3    -1.5147652245e-03
 2  1  1    -2.4220522881e-03
 2  1  2     7.0603423120e-03
 2  1  3     0.0000000000e+00
 2  2  1     5.4339870243e-03
 2  2  2     8.0175811645e-03
 2  2  3     0.0000000000e+00
 2  3  1     0.0000000000e+00
 2  3  2     0.0000000000e+00
 2  3  3    -5.4508953627e-03
 3  1  1     0.0000000000e+00
 3  1  2     0.0000000000e+00
 3  1  3    -1.5147652245e-03
 3  2  1     0.0000000000e+00
 3  2  2     0.0000000000e+00
 3  2  3    -5.4508953627e-03
 3  3  1    -6.8436464107e-03
 3  3  2    -9.2452344836e-03
 3  3  3     0.0000000000e+00

    9
0.0000000000e+00 0.0000000000e+00 0.0000000000e+00
3.1205166888e+00 3.1205166888e+00 0.0000000000e+00
     1      1      1
 1  1  1    -1.4141067939e-02
 1  1  2    -1.1367425480e-01
 1  1  3     0.0000000000e+00
 1  2  1    -8.7852726741e-02
 1  2  2    -8.7852726741e-02
 1  2  3     0.0000000000e+00
 1  3  1     0.0000000000e+00
 1  3  2     0.0000000000e+00
 1  3  3     4.0526183646e-02
 2  1  1    -8.7852726741e-02
 2  1  2    -8.7852726741e-02
 2  1  3     0.0000000000e+00
 2  2  1    -1.1367425480e-01
 2  2  2    -1.4141067939e-02
 2  2  3     0.0000000000e+00
 2  3  1     0.0000000000e+00
 2  3  2     0.0000000000e+00
 2  3  3     4.0526183646e-02
 3  1  1     0.0000000000e+00
 3  1  2     0.0000000000e+00
 3  1  3     4.0526183646e-02
 3  2  1     0.0000000000e+00
 3  2  2     0.0000000000e+00
 3  2  3     4.0526183646e-02
 3  3  1     4.1759914346e-02
 3  3  2     4.1759914346e-02
 3  3  3     0.0000000000e+00

   10
0.0000000000e+00 0.0000000000e+00 0.0000000000e+00
3.1205166888e+00 3.1205166888e+00 0.0000000000e+00
     1      1      2
 1  1  1     0.0000000000e+00
 1  1  2    -9.2452344836e-03
 1  1  3    -6.8436464107e-03
 1  2  1    -5.4508953627e-03
 1  2  2     0.0000000000e+00
 1  2  3     0.0000000000e+00
 1  3  1    -1.5147652245e-03
 1  3  2     0.0000000000e+00
 1  3  3     0.0000000000e+00
 2  1  1    -5.4508953627e-03
 2  1  2     0.0000000000e+00
 2  1  3     0.0000000000e+00
 2  2  1     0.0000000000e+00
 2  2  2     8.0175811645e-03
 2  2  3     5.4339870243e-03
 2  3  1     0.0000000000e+00
 2  3  2     7.0603423120e-03
 2  3  3    -2.4220522881e-03
 3  1  1    -1.5147652245e-03
 3  1  2     0.0000000000e+00
 3  1  3     0.0000000000e+00
 3  2  1     0.0000000000e+00
 3  2  2     7.0603423120e-03
 3  2  3    -2.4220522881e-03
 3  3  1     0.0000000000e+00
 3  3  2     3.5976467294e-03
 3  3  3    -1.0079354451e-02

   11
0.0000000000e+00 0.0000000000e+00 0.0000000000e+00
0.0000000000e+00 -6.2410333776e+00 -6.2410333776e+00
     1      1      2
 1  1  1     1.3082338694e-02
 1  1  2    -1.6184446168e-02
 1  1  3    -1.6184446168e-02
 1  2  1    -1.0675074843e-02
 1  2  2    -1.0675074843e-02
 1  2  3    -2.0065997652e-02
 1  3  1    -1.0675074843e-02
 1  3  2    -2.0065997652e-02
 1  3  3    -1.0675074843e-02
 2  1  1    -1.0675074843e-02
 2  1  2    -1.0675074843e-02
 2  1  3    -2.0065997652e-02
 2  2  1    -1.6184446168e-02
 2  2  2     1.3082338694e-02
 2  2  3    -1.6184446168e-02
 2  3  1    -2.0065997652e-02
 2  3  2    -1.0675074843e-02
 2  3  3    -1.0675074843e-02
 3  1  1    -1.0675074843e-02
 3  1  2    -2.0065997652e-02
 3  1  3    -1.0675074843e-02
 3  2  1    -2.0065997652e-02
 3  2  2    -1.0675074843e-02
 3  2  3    -1.0675074843e-02
 3  3  1    -1.6184446168e-02
 3  3  2    -1.6184446168e-02
 3  3  3     1.3082338694e-02

   12
0.0000000000e+00 0.0000000000e+00 0.0000000000e+00
-3.1205166888e+00 -6.2410333776e+00 -3.1205166888e+00
     1      1      2
 1  1  1    -8.0175811645e-03
 1  1  2    -5.4339870243e-03
 1  1  3     0.0000000000e+00
 1  2  1    -7.0603423120e-03
 1  2  2     2.4220522881e-03
 1  2  3     0.0000000000e+00
 1  3  1     0.0000000000e+00
 1  3  2     0.0000000000e+00
 1  3  3     5.4508953627e-03
 2  1  1    -7.0603423120e-03
 2  1  2     2.4220522881e-03
 2  1  3     0.0000000000e+00
 2  2  1    -3.5976467294e-03
 2  2  2     1.0079354451e-02
 2  2  3     0.0000000000e+00
 2  3  1     0.0000000000e+00
 2  3  2     0.0000000000e+00
 2  3  3     1.5147652245e-03
 3  1  1     0.0000000000e+00
 3  1  2     0.0000000000e+00
 3  1  3     5.4508953627e-03
 3  2  1     0.0000000000e+00
 3  2  2     0.0000000000e+00
 3  2  3     1.5147652245e-03
 3  3  1     9.2452344836e-03
 3  3  2     6.8436464107e-03
 3  3  3     0.0000000000e+00

   13
0.0000000000e+00 0.0000000000e+00 0.0000000000e+00
3.1205166888e+00 -6.2410333776e+00 -9.3615500665e+00
     1      1      2
 1  1  1     0.0000000000e+00
 1  1  2     6.8436464107e-03
 1  1  3     9.2452344836e-03
 1  2  1     1.5147652245e-03
 1  2  2     0.0000000000e+00
 1  2  3     0.0000000000e+00
 1  3  1     5.4508953627e-03
 1  3  2     0.0000000000e+00
 1  3  3     0.0000000000e+00
 2  1  1     1.5147652245e-03
 2  1  2     0.0000000000e+00
 2  1  3     0.0000000000e+00
 2  2  1     0.0000000000e+00
 2  2  2     1.0079354451e-02
 2  2  3    -3.5976467294e-03
 2  3  1     0.0000000000e+00
 2  3  2     2.4220522881e-03
 2  3  3    -7.0603423120e-03
 3  1  1     5.4508953627e-03
 3  1  2     0.0000000000e+00
 3  1  3     0.0000000000e+00
 3  2  1     0.0000000000e+00
 3  2  2     2.4220522881e-03
 3  2  3    -7.0603423120e-03
 3  3  1     0.0000000000e+00
 3  3  2    -5.4339870243e-03
 3  3  3    -8.0175811645e-03

   14
0.0000000000e+00 0.0000000000e+00 0.0000000000e+00
0.0000000000e+00 -3.1205166888e+00 -3.1205166888e+00
     1      1      1
 1  1  1     0.0000000000e+00
 1  1  2    -4.1759914346e-02
 1  1  3    -4.1759914346e-02
 1  2  1    -4.0526183646e-02
 1  2  2     0.0000000000e+00
 1  2  3     0.0000000000e+00
 1  3  1    -4.0526183646e-02
 1  3  2     0.0000000000e+00
 1  3  3     0.0000000000e+00
 2  1  1    -4.0526183646e-02
 2  1  2     0.0000000000e+00
 2  1  3     0.0000000000e+00
 2  2  1     0.0000000000e+00
 2  2  2     1.4141067939e-02
 2  2  3     1.1367425480e-01
 2  3  1     0.0000000000e+00
 2  3  2     8.7852726741e-02
 2  3  3     8.7852726741e-02
 3  1  1    -4.0526183646e-02
 3  1  2     0.0000000000e+00
 3  1  3     0.0000000000e+00
 3  2  1     0.0000000000e+00
 3  2  2     8.7852726741e-02
 3  2  3     8.7852726741e-02
 3  3  1     0.0000000000e+00
 3  3  2     1.1367425480e-01
 3  3  3     1.4141067939e-02

   15
0.0000000000e+00 0.0000000000e+00 0.0000000000e+00
0.0000000000e+00 -3.1205166888e+00 -3.1205166888e+00
     1      1      2
 1  1  1     3.6962538964e+00
 1  1  2     0.0000000000e+00
 1  1  3     0.0000000000e+00
 1  2  1     0.0000000000e+00
 1  2  2    -1.2659960182e-01
 1  2  3     0.0000000000e+00
 1  3  1     0.0000000000e+00
 1  3  2     0.0000000000e+00
 1  3  3    -1.2659960182e-01
 2  1  1     0.0000000000e+00
 2  1  2    -1.2659960182e-01
 2  1  3     0.0000000000e+00
 2  2  1    -1.8530973077e-01
 2  2  2     0.0000000000e+00
 2  2  3     0.0000000000e+00
 2  3  1     0.0000000000e+00
 2  3  2     0.0000000000e+00
 2  3  3     0.0000000000e+00
 3  1  1     0.0000000000e+00
 3  1  2     0.0000000000e+00
 3  1  3    -1.2659960182e-01
 3  2  1     0.0000000000e+00
 3  2  2     0.0000000000e+00
 3  2  3     0.0000000000e+00
 3  3  1    -1.8530973077e-01
 3  3  2     0.0000000000e+00
 3  3  3     0.0000000000e+00

   16
0.0000000000e+00 0.0000000000e+00 0.0000000000e+00
-3.1205166888e+00 -3.1205166888e+00 0.0000000000e+00
     1      1      1
 1  1  1     1.4141067939e-02
 1  1  2     1.1367425480e-01
 1  1  3     0.0000000000e+00
 1  2  1     8.7852726741e-02
 1  2  2     8.7852726741e-02
 1  2  3     0.0000000000e+00
 1  3  1     0.0000000000e+00
 1  3  2     0.0000000000e+00
 1  3  3    -4.0526183646e-02
 2  1  1     8.7852726741e-02
 2  1  2     8.7852726741e-02
 2  1  3     0.0000000000e+00
 2  2  1     1.1367425480e-01
 2  2  2     1.4141067939e-02
 2  2  3     0.0000000000e+00
 2  3  1     0.0000000000e+00
 2  3  2     0.0000000000e+00
 2  3  3    -4.0526183646e-02
 3  1  1     0.0000000000e+00
 3  1  2     0.0000000000e+00
 3  1  3    -4.0526183646e-02
 3  2  1     0.0000000000e+00
 3  2  2     0.0000000000e+00
 3  2  3    -4.0526183646e-02
 3  3  1    -4.1759914346e-02
 3  3  2    -4.1759914346e-02
 3  3  3     0.0000000000e+00

   17
0.0000000000e+00 0.0000000000e+00 0.0000000000e+00
-3.1205166888e+00 -3.1205166888e+00 0.0000000000e+00
     1      1      2
 1  1  1    -8.0175811645e-03
 1  1  2     0.0000000000e+00
 1  1  3     5.4339870243e-03
 1  2  1     0.0000000000e+00
 1  2  2     5.4508953627e-03
 1  2  3     0.0000000000e+00
 1  3  1     7.0603423120e-03
 1  3  2     0.0000000000e+00
 1  3  3     2.4220522881e-03
 2  1  1     0.0000000000e+00
 2  1  2     5.4508953627e-03
 2  1  3     0.0000000000e+00
 2  2  1     9.2452344836e-03
 2  2  2     0.0000000000e+00
 2  2  3    -6.8436464107e-03
 2  3  1     0.0000000000e+00
 2  3  2    -1.5147652245e-03
 2  3  3     0.0000000000e+00
 3  1  1     7.0603423120e-03
 3  1  2     0.0000000000e+00
 3  1  3     2.4220522881e-03
 3  2  1     0.0000000000e+00
 3  2  2    -1.5147652245e-03
 3  2  3     0.0000000000e+00
 3  3  1    -3.5976467294e-03
 3  3  2     0.0000000000e+00
 3  3  3    -1.0079354451e-02

   18
0.0000000000e+00 0.0000000000e+00 0.0000000000e+00
6.2410333776e+00 -3.1205166888e+00 -9.3615500665e+00
     1      1      2
 1  1  1    -1.0079354451e-02
 1  1  2     0.0000000000e+00
 1  1  3    -3.5976467294e-03
 1  2  1     0.0000000000e+00
 1  2  2    -1.5147652245e-03
 1  2  3     0.0000000000e+00
 1  3  1     2.4220522881e-03
 1  3  2     0.0000000000e+00
 1  3  3     7.0603423120e-03
 2  1  1     0.0000000000e+00
 2  1  2    -1.5147652245e-03
 2  1  3     0.0000000000e+00
 2  2  1    -6.8436464107e-03
 2  2  2     0.0000000000e+00
 2  2  3     9.2452344836e-03
 2  3  1     0.0000000000e+00
 2  3  2     5.4508953627e-03
 2  3  3     0.0000000000e+00
 3  1  1     2.4220522881e-03
 3  1  2     0.0000000000e+00
 3  1  3     7.0603423120e-03
 3  2  1     0.0000000000e+00
 3  2  2     5.4508953627e-03
 3  2  3     0.0000000000e+00
 3  3  1     5.4339870243e-03
 3  3  2     0.0000000000e+00
 3  3  3    -8.0175811645e-03

   19
0.0000000000e+00 0.0000000000e+00 0.0000000000e+00
3.1205166888e+00 -3.1205166888e+00 -6.2410333776e+00
     1      1      2
 1  1  1     0.0000000000e+00
 1  1  2     0.0000000000e+00
 1  1  3    -1.8530973077e-01
 1  2  1     0.0000000000e+00
 1  2  2     0.0000000000e+00
 1  2  3     0.0000000000e+00
 1  3  1    -1.2659960182e-01
 1  3  2     0.0000000000e+00
 1  3  3     0.0000000000e+00
 2  1  1     0.0000000000e+00
 2  1  2     0.0000000000e+00
 2  1  3     0.0000000000e+00
 2  2  1     0.0000000000e+00
 2  2  2     0.0000000000e+00
 2  2  3    -1.8530973077e-01
 2  3  1     0.0000000000e+00
 2  3  2    -1.2659960182e-01
 2  3  3     0.0000000000e+00
 3  1  1    -1.2659960182e-01
 3  1  2     0.0000000000e+00
 3  1  3     0.0000000000e+00
 3  2  1     0.0000000000e+00
 3  2  2    -1.2659960182e-01
 3  2  3     0.0000000000e+00
 3  3  1     0.0000000000e+00
 3  3  2     0.0000000000e+00
 3  3  3     3.6962538964e+00

   20
0.0000000000e+00 0.0000000000e+00 0.0000000000e+00
-3.1205166888e+00 3.1205166888e+00 0.0000000000e+00
     1      1      1
 1  1  1     1.4141067939e-02
 1  1  2    -1.1367425480e-01
 1  1  3     0.0000000000e+00
 1  2  1    -8.7852726741e-02
 1  2  2     8.7852726741e-02
 1  2  3     0.0000000000e+00
 1  3  1     0.0000000000e+00
 1  3  2     0.0000000000e+00
 1  3  3    -4.0526183646e-02
 2  1  1    -8.7852726741e-02
 2  1  2     8.7852726741e-02
 2  1  3     0.0000000000e+00
 2  2  1     1.1367425480e-01
 2  2  2    -1.4141067939e-02
 2  2  3     0.0000000000e+00
 2  3  1     0.0000000000e+00
 2  3  2     0.0000000000e+00
 2  3  3     4.0526183646e-02
 3  1  1     0.0000000000e+00
 3  1  2     0.0000000000e+00
 3  1  3    -4.0526183646e-02
 3  2  1     0.0000000000e+00
 3  2  2     0.0000000000e+00
 3  2  3     4.0526183646e-02
 3  3  1    -4.1759914346e-02
 3  3  2     4.1759914346e-02
 3  3  3     0.0000000000e+00

   21
0.0000000000e+00 0.0000000000e+00 0.0000000000e+00
3.1205166888e+00 3.1205166888e+00 -6.2410333776e+00
     1      1      2
 1  1  1     0.0000000000e+00
 1  1  2    -9.2452344836e-03
 1  1  3     6.8436464107e-03
 1  2  1    -5.4508953627e-03
 1  2  2     0.0000000000e+00
 1  2  3     0.0000000000e+00
 1  3  1     1.5147652245e-03
 1  3  2     0.0000000000e+00
 1  3  3     0.0000000000e+00
 2  1  1    -5.4508953627e-03
 2  1  2     0.0000000000e+00
 2  1  3     0.0000000000e+00
 2  2  1     0.0000000000e+00
 2  2  2     8.0175811645e-03
 2  2  3    -5.4339870243e-03
 2  3  1     0.0000000000e+00
 2  3  2    -7.0603423120e-03
 2  3  3    -2.4220522881e-03
 3  1  1     1.5147652245e-03
 3  1  2     0.0000000000e+00
 3  1  3     0.0000000000e+00
 3  2  1     0.0000000000e+00
 3  2  2    -7.0603423120e-03
 3  2  3    -2.4220522881e-03
 3  3  1     0.0000000000e+00
 3  3  2     3.5976467294e-03
 3  3  3     1.0079354451e-02

   22
0.0000000000e+00 0.0000000000e+00 0.0000000000e+00
0.0000000000e+00 3.1205166888e+00 -3.1205166888e+00
     1      1      1
 1  1  1     0.0000000000e+00
 1  1  2     4.1759914346e-02
 1  1  3    -4.1759914346e-02
 1  2  1     4.0526183646e-02
 1  2  2     0.0000000000e+00
 1  2  3     0.0000000000e+00
 1  3  1    -4.0526183646e-02
 1  3  2     0.0000000000e+00
 1  3  3     0.0000000000e+00
 2  1  1     4.0526183646e-02
 2  1  2     0.0000000000e+00
 2  1  3     0.0000000000e+00
 2  2  1     0.0000000000e+00
 2  2  2    -1.4141067939e-02
 2  2  3     1.1367425480e-01
 2  3  1     0.0000000000e+00
 2  3  2     8.7852726741e-02
 2  3  3    -8.7852726741e-02
 3  1  1    -4.0526183646e-02
 3  1  2     0.0000000000e+00
 3  1  3     0.0000000000e+00
 3  2  1     0.0000000000e+00
 3  2  2     8.7852726741e-02
 3  2  3    -8.7852726741e-02
 3  3  1     0.0000000000e+00
 3  3  2    -1.1367425480e-01
 3  3  3     1.4141067939e-02

   23
0.0000000000e+00 0.0000000000e+00 0.0000000000e+00
0.0000000000e+00 3.1205166888e+00 -3.1205166888e+00
     1      1      2
 1  1  1     1.0079354451e-02
 1  1  2     3.5976467294e-03
 1  1  3     0.0000000000e+00
 1  2  1    -2.4220522881e-03
 1  2  2    -7.0603423120e-03
 1  2  3     0.0000000000e+00
 1  3  1     0.0000000000e+00
 1  3  2     0.0000000000e+00
 1  3  3     1.5147652245e-03
 2  1  1    -2.4220522881e-03
 2  1  2    -7.0603423120e-03
 2  1  3     0.0000000000e+00
 2  2  1    -5.4339870243e-03
 2  2  2     8.0175811645e-03
 2  2  3     0.0000000000e+00
 2  3  1     0.0000000000e+00
 2  3  2     0.0000000000e+00
 2  3  3    -5.4508953627e-03
 3  1  1     0.0000000000e+00
 3  1  2     0.0000000000e+00
 3  1  3     1.5147652245e-03
 3  2  1     0.0000000000e+00
 3  2  2     0.0000000000e+00
 3  2  3    -5.4508953627e-03
 3  3  1     6.8436464107e-03
 3  3  2    -9.2452344836e-03
 3  3  3     0.0000000000e+00

   24
0.0000000000e+00 0.0000000000e+00 0.0000000000e+00
0.0000000000e+00 6.2410333776e+00 0.0000000000e+00
     1      1      1
 1  1  1     0.0000000000e+00
 1  1  2     2.8980882383e-02
 1  1  3     0.0000000000e+00
 1  2  1     5.6583951942e-03
 1  2  2     0.0000000000e+00
 1  2  3     0.0000000000e+00
 1  3  1     0.0000000000e+00
 1  3  2     0.0000000000e+00
 1  3  3     0.0000000000e+00
 2  1  1     5.6583951942e-03
 2  1  2     0.0000000000e+00
 2  1  3     0.0000000000e+00
 2  2  1     0.0000000000e+00
 2  2  2    -3.4709894033e-02
 2  2  3     0.0000000000e+00
 2  3  1     0.0000000000e+00
 2  3  2     0.0000000000e+00
 2  3  3     5.6583951942e-03
 3  1  1     0.0000000000e+00
 3  1  2     0.0000000000e+00
 3  1  3     0.0000000000e+00
 3  2  1     0.0000000000e+00
 3  2  2     0.0000000000e+00
 3  2  3     5.6583951942e-03
 3  3  1     0.0000000000e+00
 3  3  2     2.8980882383e-02
 3  3  3     0.0000000000e+00

   25
0.0000000000e+00 0.0000000000e+00 0.0000000000e+00
-3.1205166888e+00 -3.1205166888e+00 -6.2410333776e+00
     1      1      2
 1  1  1    -8.0175811645e-03
 1  1  2     0.0000000000e+00
 1  1  3    -5.4339870243e-03
 1  2  1     0.0000000000e+00
 1  2  2     5.4508953627e-03
 1  2  3     0.0000000000e+00
 1  3  1    -7.0603423120e-03
 1  3  2     0.0000000000e+00
 1  3  3     2.4220522881e-03
 2  1  1     0.0000000000e+00
 2  1  2     5.4508953627e-03
 2  1  3     0.0000000000e+00
 2  2  1     9.2452344836e-03
 2  2  2     0.0000000000e+00
 2  2  3     6.8436464107e-03
 2  3  1     0.0000000000e+00
 2  3  2     1.5147652245e-03
 2  3  3     0.0000000000e+00
 3  1  1    -7.0603423120e-03
 3  1  2     0.0000000000e+00
 3  1  3     2.4220522881e-03
 3  2  1     0.0000000000e+00
 3  2  2     1.5147652245e-03
 3  2  3     0.0000000000e+00
 3  3  1    -3.5976467294e-03
 3  3  2     0.0000000000e+00
 3  3  3     1.0079354451e-02

   26
0.0000000000e+00 0.0000000000e+00 0.0000000000e+00
0.0000000000e+00 -3.1205166888e+00 -9.3615500665e+00
     1      1      2
 1  1  1     1.0079354451e-02
 1  1  2     0.0000000000e+00
 1  1  3    -3.5976467294e-03
 1  2  1     0.0000000000e+00
 1  2  2     1.5147652245e-03
 1  2  3     0.0000000000e+00
 1  3  1     2.4220522881e-03
 1  3  2     0.0000000000e+00
 1  3  3    -7.0603423120e-03
 2  1  1     0.0000000000e+00
 2  1  2     1.5147652245e-03
 2  1  3     0.0000000000e+00
 2  2  1     6.8436464107e-03
 2  2  2     0.0000000000e+00
 2  2  3     9.2452344836e-03
 2  3  1     0.0000000000e+00
 2  3  2     5.4508953627e-03
 2  3  3     0.0000000000e+00
 3  1  1     2.4220522881e-03
 3  1  2     0.0000000000e+00
 3  1  3    -7.0603423120e-03
 3  2  1     0.0000000000e+00
 3  2  2     5.4508953627e-03
 3  2  3     0.0000000000e+00
 3  3  1    -5.4339870243e-03
 3  3  2     0.0000000000e+00
 3  3  3    -8.0175811645e-03

   27
0.0000000000e+00 0.0000000000e+00 0.0000000000e+00
-3.1205166888e+00 0.0000000000e+00 -3.1205166888e+00
     1      1      1
 1  1  1     1.4141067939e-02
 1  1  2     0.0000000000e+00
 1  1  3     1.1367425480e-01
 1  2  1     0.0000000000e+00
 1  2  2    -4.0526183646e-02
 1  2  3     0.0000000000e+00
 1  3  1     8.7852726741e-02
 1  3  2     0.0000000000e+00
 1  3  3     8.7852726741e-02
 2  1  1     0.0000000000e+00
 2  1  2    -4.0526183646e-02
 2  1  3     0.0000000000e+00
 2  2  1    -4.1759914346e-02
 2  2  2     0.0000000000e+00
 2  2  3    -4.1759914346e-02
 2  3  1     0.0000000000e+00
 2  3  2    -4.0526183646e-02
 2  3  3     0.0000000000e+00
 3  1  1     8.7852726741e-02
 3  1  2     0.0000000000e+00
 3  1  3     8.7852726741e-02
 3  2  1     0.0000000000e+00
 3  2  2    -4.0526183646e-02
 3  2  3     0.0000000000e+00
 3  3  1     1.1367425480e-01
 3  3  2     0.0000000000e+00
 3  3  3     1.4141067939e-02

   28
0.0000000000e+00 0.0000000000e+00 0.0000000000e+00
-3.1205166888e+00 0.0000000000e+00 -3.1205166888e+00
     1      1      2
 1  1  1    -8.0175811645e-03
 1  1  2     5.4339870243e-03
 1  1  3     0.0000000000e+00
 1  2  1     7.0603423120e-03
 1  2  2     2.4220522881e-03
 1  2  3     0.0000000000e+00
 1  3  1     0.0000000000e+00
 1  3  2     0.0000000000e+00
 1  3  3     5.4508953627e-03
 2  1  1     7.0603423120e-03
 2  1  2     2.4220522881e-03
 2  1  3     0.0000000000e+00
 2  2  1    -3.5976467294e-03
 2  2  2    -1.0079354451e-02
 2  2  3     0.0000000000e+00
 2  3  1     0.0000000000e+00
 2  3  2     0.0000000000e+00
 2  3  3    -1.5147652245e-03
 3  1  1     0.0000000000e+00
 3  1  2     0.0000000000e+00
 3  1  3     5.4508953627e-03
 3  2  1     0.0000000000e+00
 3  2  2     0.0000000000e+00
 3  2  3    -1.5147652245e-03
 3  3  1     9.2452344836e-03
 3  3  2    -6.8436464107e-03
 3  3  3     0.0000000000e+00

   29
0.0000000000e+00 0.0000000000e+00 0.0000000000e+00
-6.2410333776e+00 0.0000000000e+00 0.0000000000e+00
     1      1      1
 1  1  1     3.4709894033e-02
 1  1  2     0.0000000000e+00
 1  1  3     0.0000000000e+00
 1  2  1     0.0000000000e+00
 1  2  2    -5.6583951942e-03
 1  2  3     0.0000000000e+00
 1  3  1     0.0000000000e+00
 1  3  2     0.0000000000e+00
 1  3  3    -5.6583951942e-03
 2  1  1     0.0000000000e+00
 2  1  2    -5.6583951942e-03
 2  1  3     0.0000000000e+00
 2  2  1    -2.8980882383e-02
 2  2  2     0.0000000000e+00
 2  2  3     0.0000000000e+00
 2  3  1     0.0000000000e+00
 2  3  2     0.0000000000e+00
 2  3  3     0.0000000000e+00
 3  1  1     0.0000000000e+00
 3  1  2     0.0000000000e+00
 3  1  3    -5.6583951942e-03
 3  2  1     0.0000000000e+00
 3  2  2     0.0000000000e+00
 3  2  3     0.0000000000e+00
 3  3  1    -2.8980882383e-02
 3  3  2     0.0000000000e+00
 3  3  3     0.0000000000e+00

   30
0.0000000000e+00 0.0000000000e+00 0.0000000000e+00
3.1205166888e+00 0.0000000000e+00 -9.3615500665e+00
     1      1      2
 1  1  1     0.0000000000e+00
 1  1  2    -6.8436464107e-03
 1  1  3     9.2452344836e-03
 1  2  1    -1.5147652245e-03
 1  2  2     0.0000000000e+00
 1  2  3     0.0000000000e+00
 1  3  1     5.4508953627e-03
 1  3  2     0.0000000000e+00
 1  3  3     0.0000000000e+00
 2  1  1    -1.5147652245e-03
 2  1  2     0.0000000000e+00
 2  1  3     0.0000000000e+00
 2  2  1     0.0000000000e+00
 2  2  2    -1.0079354451e-02
 2  2  3    -3.5976467294e-03
 2  3  1     0.0000000000e+00
 2  3  2     2.4220522881e-03
 2  3  3     7.0603423120e-03
 3  1  1     5.4508953627e-03
 3  1  2     0.0000000000e+00
 3  1  3     0.0000000000e+00
 3  2  1     0.0000000000e+00
 3  2  2     2.4220522881e-03
 3  2  3     7.0603423120e-03
 3  3  1     0.0000000000e+00
 3  3  2     5.4339870243e-03
 3  3  3    -8.0175811645e-03

   31
0.0000000000e+00 0.0000000000e+00 0.0000000000e+00
0.0000000000e+00 0.0000000000e+00 -6.2410333776e+00
     1      1      1
 1  1  1     0.0000000000e+00
 1  1  2     0.0000000000e+00
 1  1  3    -2.8980882383e-02
 1  2  1     0.0000000000e+00
 1  2  2     0.0000000000e+00
 1  2  3     0.0000000000e+00
 1  3  1    -5.6583951942e-03
 1  3  2     0.0000000000e+00
 1  3  3     0.0000000000e+00
 2  1  1     0.0000000000e+00
 2  1  2     0.0000000000e+00
 2  1  3     0.0000000000e+00
 2  2  1     0.0000000000e+00
 2  2  2     0.0000000000e+00
 2  2  3    -2.8980882383e-02
 2  3  1     0.0000000000e+00
 2  3  2    -5.6583951942e-03
 2  3  3     0.0000000000e+00
 3  1  1    -5.6583951942e-03
 3  1  2     0.0000000000e+00
 3  1  3     0.0000000000e+00
 3  2  1     0.0000000000e+00
 3  2  2    -5.6583951942e-03
 3  2  3     0.0000000000e+00
 3  3  1     0.0000000000e+00
 3  3  2     0.0000000000e+00
 3  3  3     3.4709894033e-02

   32
0.0000000000e+00 0.0000000000e+00 0.0000000000e+00
0.0000000000e+00 0.0000000000e+00 -6.2410333776e+00
     1      1      2
 1  1  1     1.3082338694e-02
 1  1  2     1.6184446168e-02
 1  1  3    -1.6184446168e-02
 1  2  1     1.0675074843e-02
 1  2  2    -1.0675074843e-02
 1  2  3     2.0065997652e-02
 1  3  1    -1.0675074843e-02
 1  3  2     2.0065997652e-02
 1  3  3    -1.0675074843e-02
 2  1  1     1.0675074843e-02
 2  1  2    -1.0675074843e-02
 2  1  3     2.0065997652e-02
 2  2  1    -1.6184446168e-02
 2  2  2    -1.3082338694e-02
 2  2  3    -1.6184446168e-02
 2  3  1     2.0065997652e-02
 2  3  2    -1.0675074843e-02
 2  3  3     1.0675074843e-02
 3  1  1    -1.0675074843e-02
 3  1  2     2.0065997652e-02
 3  1  3    -1.0675074843e-02
 3  2  1     2.0065997652e-02