  734

    1
0.0000000000e+00 0.0000000000e+00 0.0000000000e+00
0.0000000000e+00 0.0000000000e+00 0.0000000000e+00
     1      1      1
 1  1  1     0.0000000000e+00
 1  1  2    -1.6637565067e+02
 1  1  3     0.0000000000e+00
 1  2  1    -1.6637565067e+02
 1  2  2     0.0000000000e+00
 1  2  3     0.0000000000e+00
 1  3  1     0.0000000000e+00
 1  3  2     0.0000000000e+00
 1  3  3     0.0000000000e+00
 2  1  1    -1.6637565067e+02
 2  1  2     0.0000000000e+00
 2  1  3     0.0000000000e+00
 2  2  1     0.0000000000e+00
 2  2  2     1.6637565067e+02
 2  2  3     0.0000000000e+00
 2  3  1     0.0000000000e+00
 2  3  2     0.0000000000e+00
 2  3  3     0.0000000000e+00
 3  1  1     0.0000000000e+00
 3  1  2     0.0000000000e+00
 3  1  3     0.0000000000e+00
 3  2  1     0.0000000000e+00
 3  2  2     0.0000000000e+00
 3  2  3     0.0000000000e+00
 3  3  1     0.0000000000e+00
 3  3  2     0.0000000000e+00
 3  3  3     0.0000000000e+00

    2
0.0000000000e+00 0.0000000000e+00 0.0000000000e+00
0.0000000000e+00 0.0000000000e+00 0.0000000000e+00
     1      1      2
 1  1  1     0.0000000000e+00
 1  1  2     9.6930059683e+00
 1  1  3     0.0000000000e+00
 1  2  1     1.1057363769e+01
 1  2  2     0.0000000000e+00
 1  2  3     0.0000000000e+00
 1  3  1     0.0000000000e+00
 1  3  2     0.0000000000e+00
 1  3  3     0.0000000000e+00
 2  1  1     1.1057363769e+01
 2  1  2     0.0000000000e+00
 2  1  3     0.0000000000e+00
 2  2  1     0.0000000000e+00
 2  2  2    -1.9003423197e+02
 2  2  3     0.0000000000e+00
 2  3  1     0.0000000000e+00
 2  3  2     0.0000000000e+00
 2  3  3     1.4723487239e+01
 3  1  1     0.0000000000e+00
 3  1  2     0.0000000000e+00
 3  1  3     0.0000000000e+00
 3  2  1     0.0000000000e+00
 3  2  2     0.0000000000e+00
 3  2  3     1.4723487239e+01
 3  3  1     0.0000000000e+00
 3  3  2     1.2544388005e+01
 3  3  3     0.0000000000e+00

    3
0.0000000000e+00 0.0000000000e+00 0.0000000000e+00
2.4606526801e+00 0.0000000000e+00 0.0000000000e+00
     1      1      1
 1  1  1    -1.0531881736e+01
 1  1  2    -8.3767250819e-01
 1  1  3     0.0000000000e+00
 1  2  1     1.6163092667e+00
 1  2  2     2.6982356665e+00
 1  2  3     0.0000000000e+00
 1  3  1     0.0000000000e+00
 1  3  2     0.0000000000e+00
 1  3  3     2.4264086694e+00
 2  1  1     1.6163092667e+00
 2  1  2     2.6982356665e+00
 2  1  3     0.0000000000e+00
 2  2  1     2.0416517926e+00
 2  2  2     1.2026706346e+00
 2  2  3     0.0000000000e+00
 2  3  1     0.0000000000e+00
 2  3  2     0.0000000000e+00
 2  3  3     9.6056662492e-01
 3  1  1     0.0000000000e+00
 3  1  2     0.0000000000e+00
 3  1  3     2.4264086694e+00
 3  2  1     0.0000000000e+00
 3  2  2     0.0000000000e+00
 3  2  3     9.6056662492e-01
 3  3  1    -4.9623511802e-01
 3  3  2     5.2641181976e-01
 3  3  3     0.0000000000e+00

    4
0.0000000000e+00 0.0000000000e+00 0.0000000000e+00
2.4606526801e+00 0.0000000000e+00 0.0000000000e+00
     1      1      2
 1  1  1    -2.3249696928e+00
 1  1  2     1.1632103205e+00
 1  1  3     0.0000000000e+00
 1  2  1    -9.9072934764e-01
 1  2  2    -2.0185675448e+00
 1  2  3     0.0000000000e+00
 1  3  1     0.0000000000e+00
 1  3  2     0.0000000000e+00
 1  3  3     7.7646335466e-02
 2  1  1    -9.9072934764e-01
 2  1  2    -2.0185675448e+00
 2  1  3     0.0000000000e+00
 2  2  1     1.7121653969e+00
 2  2  2    -1.5170130457e+00
 2  2  3     0.0000000000e+00
 2  3  1     0.0000000000e+00
 2  3  2     0.0000000000e+00
 2  3  3     4.4829132683e-02
 3  1  1     0.0000000000e+00
 3  1  2     0.0000000000e+00
 3  1  3     7.7646335466e-02
 3  2  1     0.0000000000e+00
 3  2  2     0.0000000000e+00
 3  2  3     4.4829132683e-02
 3  3  1    -6.7424726879e-02
 3  3  2    -3.8927684214e-02
 3  3  3     0.0000000000e+00

    5
0.0000000000e+00 0.0000000000e+00 0.0000000000e+00
-2.4606526801e+00 0.0000000000e+00 0.0000000000e+00
     1      1      1
 1  1  1     1.0531881736e+01
 1  1  2    -8.3767250819e-01
 1  1  3     0.0000000000e+00
 1  2  1     1.6163092667e+00
 1  2  2    -2.6982356665e+00
 1  2  3     0.0000000000e+00
 1  3  1     0.0000000000e+00
 1  3  2     0.0000000000e+00
 1  3  3    -2.4264086694e+00
 2  1  1     1.6163092667e+00
 2  1  2    -2.6982356665e+00
 2  1  3     0.0000000000e+00
 2  2  1    -2.0416517926e+00
 2  2  2     1.2026706346e+00
 2  2  3     0.0000000000e+00
 2  3  1     0.0000000000e+00
 2  3  2     0.0000000000e+00
 2  3  3     9.6056662492e-01
 3  1  1     0.0000000000e+00
 3  1  2     0.0000000000e+00
 3  1  3    -2.4264086694e+00
 3  2  1     0.0000000000e+00
 3  2  2     0.0000000000e+00
 3  2  3     9.6056662492e-01
 3  3  1     4.9623511802e-01
 3  3  2     5.2641181976e-01
 3  3  3     0.0000000000e+00

    6
0.0000000000e+00 0.0000000000e+00 0.0000000000e+00
-2.4606526801e+00 0.0000000000e+00 0.0000000000e+00
     1      1      2
 1  1  1     2.3249696928e+00
 1  1  2     1.1632103205e+00
 1  1  3     0.0000000000e+00
 1  2  1    -9.9072934764e-01
 1  2  2     2.0185675448e+00
 1  2  3     0.0000000000e+00
 1  3  1     0.0000000000e+00
 1  3  2     0.0000000000e+00
 1  3  3    -7.7646335466e-02
 2  1  1    -9.9072934764e-01
 2  1  2     2.0185675448e+00
 2  1  3     0.0000000000e+00
 2  2  1    -1.7121653969e+00
 2  2  2    -1.5170130457e+00
 2  2  3     0.0000000000e+00
 2  3  1     0.0000000000e+00
 2  3  2     0.0000000000e+00
 2  3  3     4.4829132683e-02
 3  1  1     0.0000000000e+00
 3  1  2     0.0000000000e+00
 3  1  3    -7.7646335466e-02
 3  2  1     0.0000000000e+00
 3  2  2     0.0000000000e+00
 3  2  3     4.4829132683e-02
 3  3  1     6.7424726879e-02
 3  3  2    -3.8927684214e-02
 3  3  3     0.0000000000e+00

    7
0.0000000000e+00 0.0000000000e+00 0.0000000000e+00
-1.2303263401e+00 2.1309877309e+00 0.0000000000e+00
     1      1      1
 1  1  1    -2.7724894712e+00
 1  1  2    -1.2565583354e+00
 1  1  3     0.0000000000e+00
 1  2  1    -1.9149309082e+00
 1  2  2     4.2480042985e+00
 1  2  3     0.0000000000e+00
 1  3  1     0.0000000000e+00
 1  3  2     0.0000000000e+00
 1  3  3    -2.0450794339e+00
 2  1  1    -1.9149309082e+00
 2  1  2     4.2480042985e+00
 2  1  3     0.0000000000e+00
 2  2  1     6.7015067930e+00
 2  2  2    -6.2786955425e+00
 2  2  3     0.0000000000e+00
 2  3  1     0.0000000000e+00
 2  3  2     0.0000000000e+00
 2  3  3     1.6210482352e+00
 3  1  1     0.0000000000e+00
 3  1  2     0.0000000000e+00
 3  1  3    -2.0450794339e+00
 3  2  1     0.0000000000e+00
 3  2  2     0.0000000000e+00
 3  2  3     1.6210482352e+00
 3  3  1    -2.0776844976e-01
 3  3  2    -6.9295812834e-01
 3  3  3     0.0000000000e+00

    8
0.0000000000e+00 0.0000000000e+00 0.0000000000e+00
-1.2303263401e+00 2.1309877309e+00 0.0000000000e+00
     1      1      2
 1  1  1     1.1569964678e-01
 1  1  2    -9.2167949657e-01
 1  1  3     0.0000000000e+00
 1  2  1    -4.7231075501e-01
 1  2  2     4.9275502275e-02
 1  2  3     0.0000000000e+00
 1  3  1     0.0000000000e+00
 1  3  2     0.0000000000e+00
 1  3  3    -1.6021240729e-01
 2  1  1    -4.7231075501e-01
 2  1  2     4.9275502275e-02
 2  1  3     0.0000000000e+00
 2  2  1     7.5014389633e-01
 2  2  2     1.1415522579e+00
 2  2  3     0.0000000000e+00
 2  3  1     0.0000000000e+00
 2  3  2     0.0000000000e+00
 2  3  3    -1.0290638762e-01
 3  1  1     0.0000000000e+00
 3  1  2     0.0000000000e+00
 3  1  3    -1.6021240729e-01
 3  2  1     0.0000000000e+00
 3  2  2     0.0000000000e+00
 3  2  3    -1.0290638762e-01
 3  3  1     1.3740226056e-01
 3  3  2    -1.5738279797e-01
 3  3  3     0.0000000000e+00

    9
0.0000000000e+00 0.0000000000e+00 0.0000000000e+00
1.2303263401e+00 2.1309877309e+00 0.0000000000e+00
     1      1      1
 1  1  1     2.7724894712e+00
 1  1  2    -1.2565583354e+00
 1  1  3     0.0000000000e+00
 1  2  1    -1.9149309082e+00
 1  2  2    -4.2480042985e+00
 1  2  3     0.0000000000e+00
 1  3  1     0.0000000000e+00
 1  3  2     0.0000000000e+00
 1  3  3     2.0450794339e+00
 2  1  1    -1.9149309082e+00
 2  1  2    -4.2480042985e+00
 2  1  3     0.0000000000e+00
 2  2  1    -6.7015067930e+00
 2  2  2    -6.2786955425e+00
 2  2  3     0.0000000000e+00
 2  3  1     0.0000000000e+00
 2  3  2     0.0000000000e+00
 2  3  3     1.6210482352e+00
 3  1  1     0.0000000000e+00
 3  1  2     0.0000000000e+00
 3  1  3     2.0450794339e+00
 3  2  1     0.0000000000e+00
 3  2  2     0.0000000000e+00
 3  2  3     1.6210482352e+00
 3  3  1     2.0776844976e-01
 3  3  2    -6.9295812834e-01
 3  3  3     0.0000000000e+00

   10
0.0000000000e+00 0.0000000000e+00 0.0000000000e+00
1.2303263401e+00 2.1309877309e+00 0.0000000000e+00
     1      1      2
 1  1  1    -1.1569964678e-01
 1  1  2    -9.2167949657e-01
 1  1  3     0.0000000000e+00
 1  2  1    -4.7231075501e-01
 1  2  2    -4.9275502275e-02
 1  2  3     0.0000000000e+00
 1  3  1     0.0000000000e+00
 1  3  2     0.0000000000e+00
 1  3  3     1.6021240729e-01
 2  1  1    -4.7231075501e-01
 2  1  2    -4.9275502275e-02
 2  1  3     0.0000000000e+00
 2  2  1    -7.5014389633e-01
 2  2  2     1.1415522579e+00
 2  2  3     0.0000000000e+00
 2  3  1     0.0000000000e+00
 2  3  2     0.0000000000e+00
 2  3  3    -1.0290638762e-01
 3  1  1     0.0000000000e+00
 3  1  2     0.0000000000e+00
 3  1  3     1.6021240729e-01
 3  2  1     0.0000000000e+00
 3  2  2     0.0000000000e+00
 3  2  3    -1.0290638762e-01
 3  3  1    -1.3740226056e-01
 3  3  2    -1.5738279797e-01
 3  3  3     0.0000000000e+00

   11
0.0000000000e+00 0.0000000000e+00 0.0000000000e+00
3.6909790202e+00 2.1309877309e+00 0.0000000000e+00
     1      1      1
 1  1  1     1.8341970943e-01
 1  1  2     3.3394556121e-01
 1  1  3     0.0000000000e+00
 1  2  1     5.6144839470e-01
 1  2  2     1.9248872530e-01
 1  2  3     0.0000000000e+00
 1  3  1     0.0000000000e+00
 1  3  2     0.0000000000e+00
 1  3  3    -9.0195323406e-02
 2  1  1     5.6144839470e-01
 2  1  2     1.9248872530e-01
 2  1  3     0.0000000000e+00
 2  2  1    -2.0155774117e-01
 2  2  2    -3.4441755872e-01
 2  2  3     0.0000000000e+00
 2  3  1     0.0000000000e+00
 2  3  2     0.0000000000e+00
 2  3  3    -5.2074294248e-02
 3  1  1     0.0000000000e+00
 3  1  2     0.0000000000e+00
 3  1  3    -9.0195323406e-02
 3  2  1     0.0000000000e+00
 3  2  2     0.0000000000e+00
 3  2  3    -5.2074294248e-02
 3  3  1    -2.9122360780e-02
 3  3  2    -1.6813802836e-02
 3  3  3     0.0000000000e+00

   12
0.0000000000e+00 0.0000000000e+00 0.0000000000e+00
-3.6909790202e+00 2.1309877309e+00 0.0000000000e+00
     1      1      1
 1  1  1    -1.8341970943e-01
 1  1  2     3.3394556121e-01
 1  1  3     0.0000000000e+00
 1  2  1     5.6144839470e-01
 1  2  2    -1.9248872530e-01
 1  2  3     0.0000000000e+00
 1  3  1     0.0000000000e+00
 1  3  2     0.0000000000e+00
 1  3  3     9.0195323406e-02
 2  1  1     5.6144839470e-01
 2  1  2    -1.9248872530e-01
 2  1  3     0.0000000000e+00
 2  2  1     2.0155774117e-01
 2  2  2    -3.4441755872e-01
 2  2  3     0.0000000000e+00
 2  3  1     0.0000000000e+00
 2  3  2     0.0000000000e+00
 2  3  3    -5.2074294248e-02
 3  1  1     0.0000000000e+00
 3  1  2     0.0000000000e+00
 3  1  3     9.0195323406e-02
 3  2  1     0.0000000000e+00
 3  2  2     0.0000000000e+00
 3  2  3    -5.2074294248e-02
 3  3  1     2.9122360780e-02
 3  3  2    -1.6813802836e-02
 3  3  3     0.0000000000e+00

   13
0.0000000000e+00 0.0000000000e+00 0.0000000000e+00
2.4606526801e+00 -4.2619754618e+00 0.0000000000e+00
     1      1      2
 1  1  1     6.7011696430e-01
 1  1  2    -1.7615968291e-01
 1  1  3     0.0000000000e+00
 1  2  1    -1.0078138877e+00
 1  2  2    -8.0492469903e-03
 1  2  3     0.0000000000e+00
 1  3  1     0.0000000000e+00
 1  3  2     0.0000000000e+00
 1  3  3    -1.6922574954e-01
 2  1  1    -1.0078138877e+00
 2  1  2    -8.0492469903e-03
 2  1  3     0.0000000000e+00
 2  2  1    -4.6779795826e-02
 2  2  2     8.1606580627e-01
 2  2  3     0.0000000000e+00
 2  3  1     0.0000000000e+00
 2  3  2     0.0000000000e+00
 2  3  3    -8.7294820904e-02
 3  1  1     0.0000000000e+00
 3  1  2     0.0000000000e+00
 3  1  3    -1.6922574954e-01
 3  2  1     0.0000000000e+00
 3  2  2     0.0000000000e+00
 3  2  3    -8.7294820904e-02
 3  3  1    -6.7596370882e-02
 3  3  2     1.9768524717e-01
 3  3  3     0.0000000000e+00

   14
0.0000000000e+00 0.0000000000e+00 0.0000000000e+00
0.0000000000e+00 4.2619754618e+00 0.0000000000e+00
     1      1      1
 1  1  1     0.0000000000e+00
 1  1  2     4.5440083740e-01
 1  1  3     0.0000000000e+00
 1  2  1    -4.3974482341e-02
 1  2  2     0.0000000000e+00
 1  2  3     0.0000000000e+00
 1  3  1     0.0000000000e+00
 1  3  2     0.0000000000e+00
 1  3  3     0.0000000000e+00
 2  1  1    -4.3974482341e-02
 2  1  2     0.0000000000e+00
 2  1  3     0.0000000000e+00
 2  2  1     0.0000000000e+00
 2  2  2    -7.5691470047e-01
 2  2  3     0.0000000000e+00
 2  3  1     0.0000000000e+00
 2  3  2     0.0000000000e+00
 2  3  3     5.4236937638e-02
 3  1  1     0.0000000000e+00
 3  1  2     0.0000000000e+00
 3  1  3     0.0000000000e+00
 3  2  1     0.0000000000e+00
 3  2  2     0.0000000000e+00
 3  2  3     5.4236937638e-02
 3  3  1     0.0000000000e+00
 3  3  2    -1.1894947701e-01
 3  3  3     0.0000000000e+00

   15
0.0000000000e+00 0.0000000000e+00 0.0000000000e+00
-2.4606526801e+00 -4.2619754618e+00 0.0000000000e+00
     1      1      2
 1  1  1    -6.7011696430e-01
 1  1  2    -1.7615968291e-01
 1  1  3     0.0000000000e+00
 1  2  1    -1.0078138877e+00
 1  2  2     8.0492469903e-03
 1  2  3     0.0000000000e+00
 1  3  1     0.0000000000e+00
 1  3  2     0.0000000000e+00
 1  3  3     1.6922574954e-01
 2  1  1    -1.0078138877e+00
 2  1  2     8.0492469903e-03
 2  1  3     0.0000000000e+00
 2  2  1     4.6779795826e-02
 2  2  2     8.1606580627e-01
 2  2  3     0.0000000000e+00
 2  3  1     0.0000000000e+00
 2  3  2     0.0000000000e+00
 2  3  3    -8.7294820904e-02
 3  1  1     0.0000000000e+00
 3  1  2     0.0000000000e+00
 3  1  3     1.6922574954e-01
 3  2  1     0.0000000000e+00
 3  2  2     0.0000000000e+00
 3  2  3    -8.7294820904e-02
 3  3  1     6.7596370882e-02
 3  3  2     1.9768524717e-01
 3  3  3     0.0000000000e+00

   16
0.0000000000e+00 0.0000000000e+00 0.0000000000e+00
0.0000000000e+00 -4.2619754618e+00 0.0000000000e+00
     1      1      1
 1  1  1     0.0000000000e+00
 1  1  2     6.8305380958e-01
 1  1  3     0.0000000000e+00
 1  2  1     2.2804814260e-01
 1  2  2     0.0000000000e+00
 1  2  3     0.0000000000e+00
 1  3  1     0.0000000000e+00
 1  3  2     0.0000000000e+00
 1  3  3     0.0000000000e+00
 2  1  1     2.2804814260e-01
 2  1  2     0.0000000000e+00
 2  1  3     0.0000000000e+00
 2  2  1     0.0000000000e+00
 2  2  2    -6.6210981456e-01
 2  2  3     0.0000000000e+00
 2  3  1     0.0000000000e+00
 2  3  2     0.0000000000e+00
 2  3  3     1.0414858850e-01
 3  1  1     0.0000000000e+00
 3  1  2     0.0000000000e+00
 3  1  3     0.0000000000e+00
 3  2  1     0.0000000000e+00
 3  2  2     0.0000000000e+00
 3  2  3     1.0414858850e-01
 3  3  1     0.0000000000e+00
 3  3  2     3.3627605671e-02
 3  3  3     0.0000000000e+00

   17
0.0000000000e+00 0.0000000000e+00 0.0000000000e+00
2.7755575616e-16 -4.2619754618e+00 0.0000000000e+00
     1      1      2
 1  1  1     0.0000000000e+00
 1  1  2    -1.8023471378e+00
 1  1  3     0.0000000000e+00
 1  2  1     2.5055321985e+00
 1  2  2     0.0000000000e+00
 1  2  3     0.0000000000e+00
 1  3  1     0.0000000000e+00
 1  3  2     0.0000000000e+00
 1  3  3     0.0000000000e+00
 2  1  1     2.5055321985e+00
 2  1  2     0.0000000000e+00
 2  1  3     0.0000000000e+00
 2  2  1     0.0000000000e+00
 2  2  2     2.5099525882e+00
 2  2  3     0.0000000000e+00
 2  3  1     0.0000000000e+00
 2  3  2     0.0000000000e+00
 2  3  3    -8.9658265366e-02
 3  1  1     0.0000000000e+00
 3  1  2     0.0000000000e+00
 3  1  3     0.0000000000e+00
 3  2  1     0.0000000000e+00
 3  2  2     0.0000000000e+00
 3  2  3    -8.9658265366e-02
 3  3  1     0.0000000000e+00
 3  3  2     7.7855368428e-02
 3  3  3     0.0000000000e+00

   18
0.0000000000e+00 0.0000000000e+00 0.0000000000e+00
1.2303263401e+00 -2.1309877309e+00 0.0000000000e+00
     1      1      1
 1  1  1     1.7313243907e-01
 1  1  2     2.9884373865e+00
 1  1  3     0.0000000000e+00
 1  2  1     1.1928281845e+00
 1  2  2    -6.5312636809e+00
 1  2  3     0.0000000000e+00
 1  3  1     0.0000000000e+00
 1  3  2     0.0000000000e+00
 1  3  3     3.8132923548e-01
 2  1  1     1.1928281845e+00
 2  1  2    -6.5312636809e+00
 2  1  3     0.0000000000e+00
 2  2  1    -4.7343450604e+00
 2  2  2     4.1818183649e+00
 2  2  3     0.0000000000e+00
 2  3  1     0.0000000000e+00
 2  3  2     0.0000000000e+00
 2  3  3    -2.5816148601e+00
 3  1  1     0.0000000000e+00
 3  1  2     0.0000000000e+00
 3  1  3     3.8132923548e-01
 3  2  1     0.0000000000e+00
 3  2  2     0.0000000000e+00
 3  2  3    -2.5816148601e+00
 3  3  1    -7.0400356778e-01
 3  3  2     1.6654630857e-01
 3  3  3     0.0000000000e+00

   19
0.0000000000e+00 0.0000000000e+00 0.0000000000e+00
1.2303263401e+00 -2.1309877309e+00 0.0000000000e+00
     1      1      2
 1  1  1    -1.1654427804e+02
 1  1  2     7.8344234067e+01
 1  1  3     0.0000000000e+00
 1  2  1     7.7662055167e+01
 1  2  2    -3.8454236508e+01
 1  2  3     0.0000000000e+00
 1  3  1     0.0000000000e+00
 1  3  2     0.0000000000e+00
 1  3  3     1.2750913981e+01
 2  1  1     7.7662055167e+01
 2  1  2    -3.8454236508e+01
 2  1  3     0.0000000000e+00
 2  2  1    -3.9635805023e+01
 2  2  2     1.1826378931e+01
 2  2  3     0.0000000000e+00
 2  3  1     0.0000000000e+00
 2  3  2     0.0000000000e+00
 2  3  3    -7.3617436195e+00
 3  1  1     0.0000000000e+00
 3  1  2     0.0000000000e+00
 3  1  3     1.2750913981e+01
 3  2  1     0.0000000000e+00
 3  2  2     0.0000000000e+00
 3  2  3    -7.3617436195e+00
 3  3  1     1.0863758687e+01
 3  3  2    -6.2721940024e+00
 3  3  3     0.0000000000e+00

   20
0.0000000000e+00 0.0000000000e+00 0.0000000000e+00
3.6909790202e+00 -2.1309877309e+00 0.0000000000e+00
     1      1      1
 1  1  1    -4.1229136157e-01
 1  1  2     1.9406204625e-01
 1  1  3     0.0000000000e+00
 1  2  1     4.4324970612e-01
 1  2  2    -2.8129901636e-01
 1  2  3     0.0000000000e+00
 1  3  1     0.0000000000e+00
 1  3  2     0.0000000000e+00
 1  3  3     4.6970565818e-02
 2  1  1     4.4324970612e-01
 2  1  2    -2.8129901636e-01
 2  1  3     0.0000000000e+00
 2  2  1     1.5030667115e-01
 2  2  2    -4.2805114711e-02
 2  2  3     0.0000000000e+00
 2  3  1     0.0000000000e+00
 2  3  2     0.0000000000e+00
 2  3  3    -2.7118468819e-02
 3  1  1     0.0000000000e+00
 3  1  2     0.0000000000e+00
 3  1  3     4.6970565818e-02
 3  2  1     0.0000000000e+00
 3  2  2     0.0000000000e+00
 3  2  3    -2.7118468819e-02
 3  3  1    -1.0301326886e-01
 3  3  2     5.9474738507e-02
 3  3  3     0.0000000000e+00

   21
0.0000000000e+00 0.0000000000e+00 0.0000000000e+00
3.6909790202e+00 -2.1309877309e+00 0.0000000000e+00
     1      1      2
 1  1  1     4.6708769444e-03
 1  1  2    -1.1580507689e+00
 1  1  3     0.0000000000e+00
 1  2  1    -7.7576530571e-01
 1  2  2     4.9242169131e-01
 1  2  3     0.0000000000e+00
 1  3  1     0.0000000000e+00
 1  3  2     0.0000000000e+00
 1  3  3    -9.0133422470e-03
 2  1  1    -7.7576530571e-01
 2  1  2     4.9242169131e-01
 2  1  3     0.0000000000e+00
 2  2  1    -2.4717725158e-01
 2  2  2     2.9827188419e-01
 2  2  3     0.0000000000e+00
 2  3  1     0.0000000000e+00
 2  3  2     0.0000000000e+00
 2  3  3     1.9020120853e-01
 3  1  1     0.0000000000e+00
 3  1  2     0.0000000000e+00
 3  1  3    -9.0133422470e-03
 3  2  1     0.0000000000e+00
 3  2  2     0.0000000000e+00
 3  2  3     1.9020120853e-01
 3  3  1    -2.0499863144e-01
 3  3  2    -4.0302449198e-02
 3  3  3     0.0000000000e+00

   22
0.0000000000e+00 0.0000000000e+00 0.0000000000e+00
-3.6909790202e+00 -2.1309877309e+00 0.0000000000e+00
     1      1      1
 1  1  1     4.1229136157e-01
 1  1  2     1.9406204625e-01
 1  1  3     0.0000000000e+00
 1  2  1     4.4324970612e-01
 1  2  2     2.8129901636e-01
 1  2  3     0.0000000000e+00
 1  3  1     0.0000000000e+00
 1  3  2     0.0000000000e+00
 1  3  3    -4.6970565818e-02
 2  1  1     4.4324970612e-01
 2  1  2     2.8129901636e-01
 2  1  3     0.0000000000e+00
 2  2  1    -1.5030667115e-01
 2  2  2    -4.2805114711e-02
 2  2  3     0.0000000000e+00
 2  3  1     0.0000000000e+00
 2  3  2     0.0000000000e+00
 2  3  3    -2.7118468819e-02
 3  1  1     0.0000000000e+00
 3  1  2     0.0000000000e+00
 3  1  3    -4.6970565818e-02
 3  2  1     0.0000000000e+00
 3  2  2     0.0000000000e+00
 3  2  3    -2.7118468819e-02
 3  3  1     1.0301326886e-01
 3  3  2     5.9474738507e-02
 3  3  3     0.0000000000e+00

   23
0.0000000000e+00 0.0000000000e+00 0.0000000000e+00
-3.6909790202e+00 -2.1309877309e+00 0.0000000000e+00
     1      1      2
 1  1  1    -4.6708769444e-03
 1  1  2    -1.1580507689e+00
 1  1  3     0.0000000000e+00
 1  2  1    -7.7576530571e-01
 1  2  2    -4.9242169131e-01
 1  2  3     0.0000000000e+00
 1  3  1     0.0000000000e+00
 1  3  2     0.0000000000e+00
 1  3  3     9.0133422470e-03
 2  1  1    -7.7576530571e-01
 2  1  2    -4.9242169131e-01
 2  1  3     0.0000000000e+00
 2  2  1     2.4717725158e-01
 2  2  2     2.9827188419e-01
 2  2  3     0.0000000000e+00
 2  3  1     0.0000000000e+00
 2  3  2     0.0000000000e+00
 2  3  3     1.9020120853e-01
 3  1  1     0.0000000000e+00
 3  1  2     0.0000000000e+00
 3  1  3     9.0133422470e-03
 3  2  1     0.0000000000e+00
 3  2  2     0.0000000000e+00
 3  2  3     1.9020120853e-01
 3  3  1     2.0499863144e-01
 3  3  2    -4.0302449198e-02
 3  3  3     0.0000000000e+00

   24
0.0000000000e+00 0.0000000000e+00 0.0000000000e+00
-1.2303263401e+00 -2.1309877309e+00 0.0000000000e+00
     1      1      1
 1  1  1    -1.7313243907e-01
 1  1  2     2.9884373865e+00
 1  1  3     0.0000000000e+00
 1  2  1     1.1928281845e+00
 1  2  2     6.5312636809e+00
 1  2  3     0.0000000000e+00
 1  3  1     0.0000000000e+00
 1  3  2     0.0000000000e+00
 1  3  3    -3.8132923548e-01
 2  1  1     1.1928281845e+00
 2  1  2     6.5312636809e+00
 2  1  3     0.0000000000e+00
 2  2  1     4.7343450604e+00
 2  2  2     4.1818183649e+00
 2  2  3     0.0000000000e+00
 2  3  1     0.0000000000e+00
 2  3  2     0.0000000000e+00
 2  3  3    -2.5816148601e+00
 3  1  1     0.0000000000e+00
 3  1  2     0.0000000000e+00
 3  1  3    -3.8132923548e-01
 3  2  1     0.0000000000e+00
 3  2  2     0.0000000000e+00
 3  2  3    -2.5816148601e+00
 3  3  1     7.0400356778e-01
 3  3  2     1.6654630857e-01
 3  3  3     0.0000000000e+00

   25
0.0000000000e+00 0.0000000000e+00 0.0000000000e+00
-1.2303263401e+00 -2.1309877309e+00 0.0000000000e+00
     1      1      2
 1  1  1     1.1654427804e+02
 1  1  2     7.8344234067e+01
 1  1  3     0.0000000000e+00
 1  2  1     7.7662055167e+01
 1  2  2     3.8454236508e+01
 1  2  3     0.0000000000e+00
 1  3  1     0.0000000000e+00
 1  3  2     0.0000000000e+00
 1  3  3    -1.2750913981e+01
 2  1  1     7.7662055167e+01
 2  1  2     3.8454236508e+01
 2  1  3     0.0000000000e+00
 2  2  1     3.9635805023e+01
 2  2  2     1.1826378931e+01
 2  2  3     0.0000000000e+00
 2  3  1     0.0000000000e+00
 2  3  2     0.0000000000e+00
 2  3  3    -7.3617436195e+00
 3  1  1     0.0000000000e+00
 3  1  2     0.0000000000e+00
 3  1  3    -1.2750913981e+01
 3  2  1     0.0000000000e+00
 3  2  2     0.0000000000e+00
 3  2  3    -7.3617436195e+00
 3  3  1    -1.0863758687e+01
 3  3  2    -6.2721940024e+00
 3  3  3     0.0000000000e+00

   26
0.0000000000e+00 0.0000000000e+00 0.0000000000e+00
0.0000000000e+00 0.0000000000e+00 0.0000000000e+00
     1      2      1
 1  1  1     0.0000000000e+00
 1  1  2     1.1057363769e+01
 1  1  3     0.0000000000e+00
 1  2  1     9.6930059683e+00
 1  2  2     0.0000000000e+00
 1  2  3     0.0000000000e+00
 1  3  1     0.0000000000e+00
 1  3  2     0.0000000000e+00
 1  3  3     0.0000000000e+00
 2  1  1     1.1057363769e+01
 2  1  2     0.0000000000e+00
 2  1  3     0.0000000000e+00
 2  2  1     0.0000000000e+00
 2  2  2    -1.9003423197e+02
 2  2  3     0.0000000000e+00
 2  3  1     0.0000000000e+00
 2  3  2     0.0000000000e+00
 2  3  3     1.4723487239e+01
 3  1  1     0.0000000000e+00
 3  1  2     0.0000000000e+00
 3  1  3     0.0000000000e+00
 3  2  1     0.0000000000e+00
 3  2  2     0.0000000000e+00
 3  2  3     1.2544388005e+01
 3  3  1     0.0000000000e+00
 3  3  2     1.4723487239e+01
 3  3  3     0.0000000000e+00

   27
0.0000000000e+00 0.0000000000e+00 0.0000000000e+00
0.0000000000e+00 0.0000000000e+00 0.0000000000e+00
     1      2      2
 1  1  1     0.0000000000e+00
 1  1  2    -1.1057363769e+01
 1  1  3     0.0000000000e+00
 1  2  1    -1.1057363769e+01
 1  2  2     0.0000000000e+00
 1  2  3     0.0000000000e+00
 1  3  1     0.0000000000e+00
 1  3  2     0.0000000000e+00
 1  3  3     0.0000000000e+00
 2  1  1    -9.6930059683e+00
 2  1  2     0.0000000000e+00
 2  1  3     0.0000000000e+00
 2  2  1     0.0000000000e+00
 2  2  2     1.9003423197e+02
 2  2  3     0.0000000000e+00
 2  3  1     0.0000000000e+00
 2  3  2     0.0000000000e+00
 2  3  3    -1.2544388005e+01
 3  1  1     0.0000000000e+00
 3  1  2     0.0000000000e+00
 3  1  3     0.0000000000e+00
 3  2  1     0.0000000000e+00
 3  2  2     0.0000000000e+00
 3  2  3    -1.4723487239e+01
 3  3  1     0.0000000000e+00
 3  3  2    -1.4723487239e+01
 3  3  3     0.0000000000e+00

   28
0.0000000000e+00 0.0000000000e+00 0.0000000000e+00
2.4606526801e+00 0.0000000000e+00 0.0000000000e+00
     1      2      1
 1  1  1     1.2386289963e+00
 1  1  2     4.1918761605e-01
 1  1  3     0.0000000000e+00
 1  2  1    -1.5648947539e+00
 1  2  2    -1.4434318340e+00
 1  2  3     0.0000000000e+00
 1  3  1     0.0000000000e+00
 1  3  2     0.0000000000e+00
 1  3  3    -7.6822820430e-01
 2  1  1     4.6469849598e-01
 2  1  2     3.8562682503e-01
 2  1  3     0.0000000000e+00
 2  2  1    -1.5599512224e+00
 2  2  2    -1.2344198230e+00
 2  2  3     0.0000000000e+00
 2  3  1     0.0000000000e+00
 2  3  2     0.0000000000e+00
 2  3  3    -5.1405496758e-03
 3  1  1     0.0000000000e+00
 3  1  2     0.0000000000e+00
 3  1  3     1.2593949127e-01
 3  2  1     0.0000000000e+00
 3  2  2     0.0000000000e+00
 3  2  3    -4.0950359275e-01
 3  3  1     6.1963967537e-01
 3  3  2     7.5507267313e-01
 3  3  3     0.0000000000e+00

   29
0.0000000000e+00 0.0000000000e+00 0.0000000000e+00
2.4606526801e+00 0.0000000000e+00 0.0000000000e+00
     1      2      2
 1  1  1     1.2386289963e+00
 1  1  2    -4.1918761605e-01
 1  1  3     0.0000000000e+00
 1  2  1    -4.6469849598e-01
 1  2  2     3.8562682503e-01
 1  2  3     0.0000000000e+00
 1  3  1     0.0000000000e+00
 1  3  2     0.0000000000e+00
 1  3  3     1.2593949127e-01
 2  1  1     1.5648947539e+00
 2  1  2    -1.4434318340e+00
 2  1  3     0.0000000000e+00
 2  2  1    -1.5599512224e+00
 2  2  2     1.2344198230e+00
 2  2  3     0.0000000000e+00
 2  3  1     0.0000000000e+00
 2  3  2     0.0000000000e+00
 2  3  3     4.0950359275e-01
 3  1  1     0.0000000000e+00
 3  1  2     0.0000000000e+00
 3  1  3    -7.6822820430e-01
 3  2  1     0.0000000000e+00
 3  2  2     0.0000000000e+00
 3  2  3     5.1405496758e-03
 3  3  1     6.1963967537e-01
 3  3  2    -7.5507267313e-01
 3  3  3     0.0000000000e+00

   30
0.0000000000e+00 0.0000000000e+00 0.0000000000e+00
-2.4606526801e+00 0.0000000000e+00 0.0000000000e+00
     1      2      1
 1  1  1    -1.2386289963e+00
 1  1  2     4.1918761605e-01
 1  1  3     0.0000000000e+00
 1  2  1    -1.5648947539e+00
 1  2  2     1.4434318340e+00
 1  2  3     0.0000000000e+00
 1  3  1     0.0000000000e+00
 1  3  2     0.0000000000e+00
 1  3  3     7.6822820430e-01
 2  1  1     4.6469849598e-01
 2  1  2    -3.8562682503e-01
 2  1  3     0.0000000000e+00
 2  2  1     1.5599512224e+00
 2  2  2    -1.2344198230e+00
 2  2  3     0.0000000000e+00
 2  3  1     0.0000000000e+00
 2  3  2     0.0000000000e+00
 2  3  3    -5.1405496758e-03
 3  1  1     0.0000000000e+00
 3  1  2     0.0000000000e+00
 3  1  3    -1.2593949127e-01
 3  2  1     0.0000000000e+00
 3  2  2     0.0000000000e+00
 3  2  3    -4.0950359275e-01
 3  3  1    -6.1963967537e-01
 3  3  2     7.5507267313e-01
 3  3  3     0.0000000000e+00

   31
0.0000000000e+00 0.0000000000e+00 0.0000000000e+00
-2.4606526801e+00 0.0000000000e+00 0.0000000000e+00
     1      2      2
 1  1  1    -1.2386289963e+00
 1  1  2    -4.1918761605e-01
 1  1  3     0.0000000000e+00
 1  2  1    -4.6469849598e-01
 1  2  2    -3.8562682503e-01
 1  2  3     0.0000000000e+00
 1  3  1     0.0000000000e+00
 1  3  2     0.0000000000e+00
 1  3  3    -1.2593949127e-01
 2  1  1     1.5648947539e+00
 2  1  2     1.4434318340e+00
 2  1  3     0.0000000000e+00
 2  2  1     1.5599512224e+00
 2  2  2     1.2344198230e+00
 2  2  3     0.0000000000e+00
 2  3  1     0.0000000000e+00
 2  3  2     0.0000000000e+00
 2  3  3     4.0950359275e-01
 3  1  1     0.0000000000e+00
 3  1  2     0.0000000000e+00
 3  1  3     7.6822820430e-01
 3  2  1     0.0000000000e+00
 3  2  2     0.0000000000e+00
 3  2  3     5.1405496758e-03
 3  3  1    -6.1963967537e-01
 3  3  2    -7.5507267313e-01
 3  3  3     0.0000000000e+00

   32
0.0000000000e+00 0.0000000000e+00 0.0000000000e+00
-1.2303263401e+00 2.1309877309e+00 0.0000000000e+00
     1      2      1
 1  1  1     4.1536311600e-02
 1  1  2     9.8565872361e-01
 1  1  3     0.0000000000e+00
 1  2  1    -6.9973386521e-02
 1  2  2     6.2331492015e-01
 1  2  3     0.0000000000e+00
 1  3  1     0.0000000000e+00
 1  3  2     0.0000000000e+00
 1  3  3     1.8741544877e+00
 2  1  1    -3.2294054043e+00
 2  1  2     1.2284748802e+00
 2  1  3     0.0000000000e+00
 2  2  1    -1.8102534887e+00
 2  2  2     8.0321468998e-01
 2  2  3     0.0000000000e+00
 2  3  1     0.0000000000e+00
 2  3  2     0.0000000000e+00
 2  3  3    -8.1151654159e-01
 3  1  1     0.0000000000e+00
 3  1  2     0.0000000000e+00
 3  1  3    -8.9035181056e-03
 3  2  1     0.0000000000e+00
 3  2  2     0.0000000000e+00