   0.71293E+00   0.55684E-02   0.46578E-02   0.46578E-02
   0.14259E+01   0.69723E-02   0.59245E-02   0.59245E-02
   0.21388E+01   0.71124E-02   0.61292E-02   0.61292E-02
   0.28517E+01   0.81328E-02   0.70918E-02   0.70918E-02
   0.35646E+01   0.83994E-02   0.73817E-02   0.73817E-02
   0.42776E+01   0.92962E-02   0.82790E-02   0.82790E-02
   0.49905E+01   0.10703E-01   0.96169E-02   0.96169E-02
   0.57034E+01   0.11543E-01   0.10478E-01   0.10478E-01
   0.64164E+01   0.12186E-01   0.11173E-01   0.11173E-01
   0.71293E+01   0.13286E-01   0.12254E-01   0.12254E-01
   0.78422E+01   0.13863E-01   0.12923E-01   0.12923E-01
   0.85551E+01   0.14946E-01   0.14052E-01   0.14052E-01
   0.92681E+01   0.16275E-01   0.15406E-01   0.15406E-01
   0.99810E+01   0.17062E-01   0.16340E-01   0.16340E-01
   0.10694E+02   0.18632E-01   0.17992E-01   0.17992E-01
   0.11407E+02   0.20363E-01   0.19813E-01   0.19813E-01
   0.12120E+02   0.21578E-01   0.21260E-01   0.21260E-01
   0.12833E+02   0.23076E-01   0.22976E-01   0.22976E-01
   0.13546E+02   0.23698E-01   0.23811E-01   0.23811E-01
   0.14259E+02   0.23402E-01   0.23847E-01   0.23847E-01
   0.14972E+02   0.26115E-01   0.26977E-01   0.26977E-01
   0.15684E+02   0.29053E-01   0.30298E-01   0.30298E-01
   0.16397E+02   0.32484E-01   0.34250E-01   0.34250E-01
   0.17110E+02   0.34462E-01   0.36763E-01   0.36763E-01
   0.17823E+02   0.38805E-01   0.42025E-01   0.42025E-01
   0.18536E+02   0.42658E-01   0.46808E-01   0.46808E-01
   0.19249E+02   0.58175E-01   0.65082E-01   0.65082E-01
   0.19962E+02   0.53981E-01   0.59869E-01   0.59869E-01
   0.20675E+02   0.51141E-01   0.55882E-01   0.55882E-01
   0.21388E+02   0.51795E-01   0.55583E-01   0.55583E-01
   0.22101E+02   0.55707E-01   0.58064E-01   0.58064E-01
   0.22814E+02   0.11876E+00   0.94984E-01   0.94984E-01
   0.23527E+02   0.99550E-01   0.85084E-01   0.85084E-01
   0.24240E+02   0.13213E+00   0.14864E+00   0.14864E+00
   0.24953E+02   0.42754E-01   0.43319E-01   0.43319E-01
   0.25665E+02   0.65635E-01   0.53936E-01   0.53936E-01
   0.26378E+02   0.50297E-01   0.47206E-01   0.47206E-01
   0.27091E+02   0.11094E+00   0.11861E+00   0.11861E+00
   0.27804E+02   0.62151E-01   0.61435E-01   0.61435E-01
   0.28517E+02   0.60660E-01   0.56911E-01   0.56911E-01
   0.29230E+02   0.00000E+00   0.00000E+00   0.00000E+00
   0.29943E+02   0.00000E+00   0.00000E+00   0.00000E+00
   0.30656E+02   0.00000E+00   0.00000E+00   0.00000E+00
   0.31369E+02   0.10294E-03   0.75143E-01   0.75143E-01
   0.32082E+02   0.25128E-03   0.84724E-01   0.84724E-01
   0.32795E+02   0.48845E-03   0.12822E+00   0.12822E+00
   0.33508E+02   0.86822E-03   0.32619E+00   0.32619E+00
   0.34221E+02   0.11935E-02   0.11269E+00   0.11269E+00
   0.34934E+02   0.13704E-02   0.10139E+00   0.10139E+00
   0.35646E+02   0.11959E-02   0.10943E+00   0.10943E+00
   0.36359E+02   0.93010E-03   0.50296E-01   0.50296E-01
   0.37072E+02   0.26507E-02   0.40866E+00   0.40866E+00
   0.37785E+02   0.72066E-03   0.75463E-01   0.75463E-01
   0.38498E+02   0.31012E-02   0.15180E+00   0.15180E+00
   0.39211E+02   0.85473E-02   0.25834E+00   0.25834E+00
   0.39924E+02   0.45539E-02   0.51230E-01   0.51230E-01
   0.40637E+02   0.36902E-02   0.37873E-01   0.37873E-01
   0.41350E+02   0.27612E-02   0.29192E-01   0.29192E-01
   0.42063E+02   0.20714E-02   0.24803E-01   0.24803E-01
   0.42776E+02   0.14388E-02   0.22177E-01   0.22177E-01
   0.43489E+02   0.88277E-03   0.22271E-01   0.22271E-01
   0.44202E+02   0.13399E-03   0.22872E-01   0.22872E-01
   0.44915E+02   0.00000E+00   0.00000E+00   0.00000E+00
   0.45627E+02   0.00000E+00   0.00000E+00   0.00000E+00
   0.46340E+02   0.00000E+00   0.00000E+00   0.00000E+00
   0.47053E+02   0.00000E+00   0.00000E+00   0.00000E+00
   0.47766E+02   0.00000E+00   0.00000E+00   0.00000E+00
   0.48479E+02   0.00000E+00   0.00000E+00   0.00000E+00
   0.49192E+02   0.00000E+00   0.00000E+00   0.00000E+00
   0.49905E+02   0.00000E+00   0.00000E+00   0.00000E+00
   0.50618E+02   0.84472E-01   0.43352E-01   0.43352E-01
   0.51331E+02   0.25097E+00   0.99555E-01   0.99555E-01
   0.52044E+02   0.28751E+00   0.87958E-01   0.87958E-01
   0.52757E+02   0.11305E+00   0.36970E-01   0.36970E-01
   0.53470E+02   0.45112E+00   0.12373E+00   0.12373E+00
   0.54183E+02   0.43529E+00   0.83360E-01   0.83360E-01
   0.54896E+02   0.26644E+00   0.46226E-01   0.46226E-01
   0.55608E+02   0.84341E-01   0.18217E-01   0.18217E-01
   0.56321E+02   0.60737E-01   0.13271E-01   0.13271E-01
   0.57034E+02   0.50860E-01   0.11307E-01   0.11307E-01
   0.57747E+02   0.44651E-01   0.10143E-01   0.10143E-01
   0.58460E+02   0.40217E-01   0.93642E-02   0.93642E-02
   0.59173E+02   0.37096E-01   0.88713E-02   0.88713E-02
   0.59886E+02   0.34608E-01   0.85158E-02   0.85158E-02
   0.60599E+02   0.32395E-01   0.82121E-02   0.82121E-02
   0.61312E+02   0.29791E-01   0.77901E-02   0.77901E-02
   0.62025E+02   0.29619E-01   0.79951E-02   0.79951E-02
   0.62738E+02   0.28573E-01   0.79502E-02   0.79502E-02
   0.63451E+02   0.28194E-01   0.80941E-02   0.80941E-02
   0.64164E+02   0.22424E-01   0.66349E-02   0.66349E-02
   0.64877E+02   0.00000E+00   0.00000E+00   0.00000E+00
   0.65589E+02   0.00000E+00   0.00000E+00   0.00000E+00
   0.66302E+02   0.00000E+00   0.00000E+00   0.00000E+00
   0.67015E+02   0.00000E+00   0.00000E+00   0.00000E+00
   0.67728E+02   0.00000E+00   0.00000E+00   0.00000E+00
   0.68441E+02   0.00000E+00   0.00000E+00   0.00000E+00
   0.69154E+02   0.00000E+00   0.00000E+00   0.00000E+00
   0.69867E+02   0.00000E+00   0.00000E+00   0.00000E+00
   0.70580E+02   0.00000E+00   0.00000E+00   0.00000E+00
   0.71293E+02   0.00000E+00   0.00000E+00   0.00000E+00
