 2774

    1
0.0000000000e+00 0.0000000000e+00 0.0000000000e+00
0.0000000000e+00 0.0000000000e+00 0.0000000000e+00
     1      1      1
 1  1  1     0.0000000000e+00
 1  1  2     0.0000000000e+00
 1  1  3     0.0000000000e+00
 1  2  1     0.0000000000e+00
 1  2  2     0.0000000000e+00
 1  2  3     0.0000000000e+00
 1  3  1     0.0000000000e+00
 1  3  2     0.0000000000e+00
 1  3  3     0.0000000000e+00
 2  1  1     0.0000000000e+00
 2  1  2     0.0000000000e+00
 2  1  3     0.0000000000e+00
 2  2  1     0.0000000000e+00
 2  2  2     0.0000000000e+00
 2  2  3     0.0000000000e+00
 2  3  1     0.0000000000e+00
 2  3  2     0.0000000000e+00
 2  3  3     0.0000000000e+00
 3  1  1     0.0000000000e+00
 3  1  2     0.0000000000e+00
 3  1  3     0.0000000000e+00
 3  2  1     0.0000000000e+00
 3  2  2     0.0000000000e+00
 3  2  3     0.0000000000e+00
 3  3  1     0.0000000000e+00
 3  3  2     0.0000000000e+00
 3  3  3     0.0000000000e+00

    2
0.0000000000e+00 0.0000000000e+00 0.0000000000e+00
0.0000000000e+00 0.0000000000e+00 0.0000000000e+00
     1      1      2
 1  1  1     4.0518979281e-02
 1  1  2     4.1689552831e-02
 1  1  3     4.1689552831e-02
 1  2  1     4.3148659609e-02
 1  2  2    -4.3148659609e-02
 1  2  3    -9.3996303238e-02
 1  3  1     4.3148659609e-02
 1  3  2    -9.3996303238e-02
 1  3  3    -4.3148659609e-02
 2  1  1     4.3148659609e-02
 2  1  2    -4.3148659609e-02
 2  1  3    -9.3996303238e-02
 2  2  1    -4.1689552831e-02
 2  2  2    -4.0518979281e-02
 2  2  3     4.1689552831e-02
 2  3  1    -9.3996303238e-02
 2  3  2     4.3148659609e-02
 2  3  3     4.3148659609e-02
 3  1  1     4.3148659609e-02
 3  1  2    -9.3996303238e-02
 3  1  3    -4.3148659609e-02
 3  2  1    -9.3996303238e-02
 3  2  2     4.3148659609e-02
 3  2  3     4.3148659609e-02
 3  3  1    -4.1689552831e-02
 3  3  2     4.1689552831e-02
 3  3  3    -4.0518979281e-02

    3
0.0000000000e+00 0.0000000000e+00 0.0000000000e+00
-2.3233629164e+00 0.0000000000e+00 2.3233629164e+00
     1      1      1
 1  1  1     7.0705339696e-02
 1  1  2     0.0000000000e+00
 1  1  3    -3.2777093318e-01
 1  2  1     0.0000000000e+00
 1  2  2    -1.6144679339e-01
 1  2  3     0.0000000000e+00
 1  3  1    -3.3554035766e-01
 1  3  2     0.0000000000e+00
 1  3  3     3.3554035766e-01
 2  1  1     0.0000000000e+00
 2  1  2    -1.6144679339e-01
 2  1  3     0.0000000000e+00
 2  2  1    -1.4106284018e-01
 2  2  2     0.0000000000e+00
 2  2  3     1.4106284018e-01
 2  3  1     0.0000000000e+00
 2  3  2     1.6144679339e-01
 2  3  3     0.0000000000e+00
 3  1  1    -3.3554035766e-01
 3  1  2     0.0000000000e+00
 3  1  3     3.3554035766e-01
 3  2  1     0.0000000000e+00
 3  2  2     1.6144679339e-01
 3  2  3     0.0000000000e+00
 3  3  1     3.2777093318e-01
 3  3  2     0.0000000000e+00
 3  3  3    -7.0705339696e-02

    4
0.0000000000e+00 0.0000000000e+00 0.0000000000e+00
4.6467258328e+00 0.0000000000e+00 -4.6467258328e+00
     1      1      2
 1  1  1    -4.0518979281e-02
 1  1  2     4.1689552831e-02
 1  1  3    -4.1689552831e-02
 1  2  1     4.3148659609e-02
 1  2  2     4.3148659609e-02
 1  2  3    -9.3996303238e-02
 1  3  1    -4.3148659609e-02
 1  3  2    -9.3996303238e-02
 1  3  3     4.3148659609e-02
 2  1  1     4.3148659609e-02
 2  1  2     4.3148659609e-02
 2  1  3    -9.3996303238e-02
 2  2  1     4.1689552831e-02
 2  2  2    -4.0518979281e-02
 2  2  3    -4.1689552831e-02
 2  3  1    -9.3996303238e-02
 2  3  2    -4.3148659609e-02
 2  3  3     4.3148659609e-02
 3  1  1    -4.3148659609e-02
 3  1  2    -9.3996303238e-02
 3  1  3     4.3148659609e-02
 3  2  1    -9.3996303238e-02
 3  2  2    -4.3148659609e-02
 3  2  3     4.3148659609e-02
 3  3  1     4.1689552831e-02
 3  3  2     4.1689552831e-02
 3  3  3     4.0518979281e-02

    5
0.0000000000e+00 0.0000000000e+00 0.0000000000e+00
2.3233629164e+00 0.0000000000e+00 -2.3233629164e+00
     1      1      1
 1  1  1    -7.0705339696e-02
 1  1  2     0.0000000000e+00
 1  1  3     3.2777093318e-01
 1  2  1     0.0000000000e+00
 1  2  2     1.6144679339e-01
 1  2  3     0.0000000000e+00
 1  3  1     3.3554035766e-01
 1  3  2     0.0000000000e+00
 1  3  3    -3.3554035766e-01
 2  1  1     0.0000000000e+00
 2  1  2     1.6144679339e-01
 2  1  3     0.0000000000e+00
 2  2  1     1.4106284018e-01
 2  2  2     0.0000000000e+00
 2  2  3    -1.4106284018e-01
 2  3  1     0.0000000000e+00
 2  3  2    -1.6144679339e-01
 2  3  3     0.0000000000e+00
 3  1  1     3.3554035766e-01
 3  1  2     0.0000000000e+00
 3  1  3    -3.3554035766e-01
 3  2  1     0.0000000000e+00
 3  2  2    -1.6144679339e-01
 3  2  3     0.0000000000e+00
 3  3  1    -3.2777093318e-01
 3  3  2     0.0000000000e+00
 3  3  3     7.0705339696e-02

    6
0.0000000000e+00 0.0000000000e+00 0.0000000000e+00
2.3233629164e+00 0.0000000000e+00 -2.3233629164e+00
     1      1      2
 1  1  1     0.0000000000e+00
 1  1  2     3.1594144329e-01
 1  1  3     0.0000000000e+00
 1  2  1     1.0574348294e-01
 1  2  2     0.0000000000e+00
 1  2  3     0.0000000000e+00
 1  3  1     0.0000000000e+00
 1  3  2     0.0000000000e+00
 1  3  3     0.0000000000e+00
 2  1  1     1.0574348294e-01
 2  1  2     0.0000000000e+00
 2  1  3     0.0000000000e+00
 2  2  1     0.0000000000e+00
 2  2  2    -8.2515479292e+00
 2  2  3     0.0000000000e+00
 2  3  1     0.0000000000e+00
 2  3  2     0.0000000000e+00
 2  3  3     1.0574348294e-01
 3  1  1     0.0000000000e+00
 3  1  2     0.0000000000e+00
 3  1  3     0.0000000000e+00
 3  2  1     0.0000000000e+00
 3  2  2     0.0000000000e+00
 3  2  3     1.0574348294e-01
 3  3  1     0.0000000000e+00
 3  3  2     3.1594144329e-01
 3  3  3     0.0000000000e+00

    7
0.0000000000e+00 0.0000000000e+00 0.0000000000e+00
0.0000000000e+00 2.3233629164e+00 2.3233629164e+00
     1      1      1
 1  1  1     0.0000000000e+00
 1  1  2     1.4106284018e-01
 1  1  3     1.4106284018e-01
 1  2  1     1.6144679339e-01
 1  2  2     0.0000000000e+00
 1  2  3     0.0000000000e+00
 1  3  1     1.6144679339e-01
 1  3  2     0.0000000000e+00
 1  3  3     0.0000000000e+00
 2  1  1     1.6144679339e-01
 2  1  2     0.0000000000e+00
 2  1  3     0.0000000000e+00
 2  2  1     0.0000000000e+00
 2  2  2    -7.0705339696e-02
 2  2  3    -3.2777093318e-01
 2  3  1     0.0000000000e+00
 2  3  2    -3.3554035766e-01
 2  3  3    -3.3554035766e-01
 3  1  1     1.6144679339e-01
 3  1  2     0.0000000000e+00
 3  1  3     0.0000000000e+00
 3  2  1     0.0000000000e+00
 3  2  2    -3.3554035766e-01
 3  2  3    -3.3554035766e-01
 3  3  1     0.0000000000e+00
 3  3  2    -3.2777093318e-01
 3  3  3    -7.0705339696e-02

    8
0.0000000000e+00 0.0000000000e+00 0.0000000000e+00
0.0000000000e+00 -4.6467258328e+00 -4.6467258328e+00
     1      1      2
 1  1  1     4.0518979281e-02
 1  1  2    -4.1689552831e-02
 1  1  3    -4.1689552831e-02
 1  2  1    -4.3148659609e-02
 1  2  2    -4.3148659609e-02
 1  2  3    -9.3996303238e-02
 1  3  1    -4.3148659609e-02
 1  3  2    -9.3996303238e-02
 1  3  3    -4.3148659609e-02
 2  1  1    -4.3148659609e-02
 2  1  2    -4.3148659609e-02
 2  1  3    -9.3996303238e-02
 2  2  1    -4.1689552831e-02
 2  2  2     4.0518979281e-02
 2  2  3    -4.1689552831e-02
 2  3  1    -9.3996303238e-02
 2  3  2    -4.3148659609e-02
 2  3  3    -4.3148659609e-02
 3  1  1    -4.3148659609e-02
 3  1  2    -9.3996303238e-02
 3  1  3    -4.3148659609e-02
 3  2  1    -9.3996303238e-02
 3  2  2    -4.3148659609e-02
 3  2  3    -4.3148659609e-02
 3  3  1    -4.1689552831e-02
 3  3  2    -4.1689552831e-02
 3  3  3     4.0518979281e-02

    9
0.0000000000e+00 0.0000000000e+00 0.0000000000e+00
4.6467258328e+00 2.3233629164e+00 -2.3233629164e+00
     1      1      2
 1  1  1    -5.4892386707e-02
 1  1  2    -9.9787164001e-03
 1  1  3     0.0000000000e+00
 1  2  1    -2.9682728558e-02
 1  2  2     2.9682728558e-02
 1  2  3     0.0000000000e+00
 1  3  1     0.0000000000e+00
 1  3  2     0.0000000000e+00
 1  3  3     1.1077664945e-02
 2  1  1    -2.9682728558e-02
 2  1  2     2.9682728558e-02
 2  1  3     0.0000000000e+00
 2  2  1     9.9787164001e-03
 2  2  2     5.4892386707e-02
 2  2  3     0.0000000000e+00
 2  3  1     0.0000000000e+00
 2  3  2     0.0000000000e+00
 2  3  3    -1.1077664945e-02
 3  1  1     0.0000000000e+00
 3  1  2     0.0000000000e+00
 3  1  3     1.1077664945e-02
 3  2  1     0.0000000000e+00
 3  2  2     0.0000000000e+00
 3  2  3    -1.1077664945e-02
 3  3  1     6.4815872738e-03
 3  3  2    -6.4815872738e-03
 3  3  3     0.0000000000e+00

   10
0.0000000000e+00 0.0000000000e+00 0.0000000000e+00
2.3233629164e+00 2.3233629164e+00 -4.0652830637e-16
     1      1      1
 1  1  1    -7.0705339696e-02
 1  1  2    -3.2777093318e-01
 1  1  3     0.0000000000e+00
 1  2  1    -3.3554035766e-01
 1  2  2    -3.3554035766e-01
 1  2  3     0.0000000000e+00
 1  3  1     0.0000000000e+00
 1  3  2     0.0000000000e+00
 1  3  3     1.6144679339e-01
 2  1  1    -3.3554035766e-01
 2  1  2    -3.3554035766e-01
 2  1  3     0.0000000000e+00
 2  2  1    -3.2777093318e-01
 2  2  2    -7.0705339696e-02
 2  2  3     0.0000000000e+00
 2  3  1     0.0000000000e+00
 2  3  2     0.0000000000e+00
 2  3  3     1.6144679339e-01
 3  1  1     0.0000000000e+00
 3  1  2     0.0000000000e+00
 3  1  3     1.6144679339e-01
 3  2  1     0.0000000000e+00
 3  2  2     0.0000000000e+00
 3  2  3     1.6144679339e-01
 3  3  1     1.4106284018e-01
 3  3  2     1.4106284018e-01
 3  3  3     0.0000000000e+00

   11
0.0000000000e+00 0.0000000000e+00 0.0000000000e+00
2.3233629164e+00 -4.6467258328e+00 -6.9700887493e+00
     1      1      2
 1  1  1     0.0000000000e+00
 1  1  2    -6.4815872738e-03
 1  1  3     6.4815872738e-03
 1  2  1    -1.1077664945e-02
 1  2  2     0.0000000000e+00
 1  2  3     0.0000000000e+00
 1  3  1     1.1077664945e-02
 1  3  2     0.0000000000e+00
 1  3  3     0.0000000000e+00
 2  1  1    -1.1077664945e-02
 2  1  2     0.0000000000e+00
 2  1  3     0.0000000000e+00
 2  2  1     0.0000000000e+00
 2  2  2     5.4892386707e-02
 2  2  3     9.9787164001e-03
 2  3  1     0.0000000000e+00
 2  3  2     2.9682728558e-02
 2  3  3    -2.9682728558e-02
 3  1  1     1.1077664945e-02
 3  1  2     0.0000000000e+00
 3  1  3     0.0000000000e+00
 3  2  1     0.0000000000e+00
 3  2  2     2.9682728558e-02
 3  2  3    -2.9682728558e-02
 3  3  1     0.0000000000e+00
 3  3  2    -9.9787164001e-03
 3  3  3    -5.4892386707e-02

   12
0.0000000000e+00 0.0000000000e+00 0.0000000000e+00
0.0000000000e+00 -2.3233629164e+00 -2.3233629164e+00
     1      1      1
 1  1  1     0.0000000000e+00
 1  1  2    -1.4106284018e-01
 1  1  3    -1.4106284018e-01
 1  2  1    -1.6144679339e-01
 1  2  2     0.0000000000e+00
 1  2  3     0.0000000000e+00
 1  3  1    -1.6144679339e-01
 1  3  2     0.0000000000e+00
 1  3  3     0.0000000000e+00
 2  1  1    -1.6144679339e-01
 2  1  2     0.0000000000e+00
 2  1  3     0.0000000000e+00
 2  2  1     0.0000000000e+00
 2  2  2     7.0705339696e-02
 2  2  3     3.2777093318e-01
 2  3  1     0.0000000000e+00
 2  3  2     3.3554035766e-01
 2  3  3     3.3554035766e-01
 3  1  1    -1.6144679339e-01
 3  1  2     0.0000000000e+00
 3  1  3     0.0000000000e+00
 3  2  1     0.0000000000e+00
 3  2  2     3.3554035766e-01
 3  2  3     3.3554035766e-01
 3  3  1     0.0000000000e+00
 3  3  2     3.2777093318e-01
 3  3  3     7.0705339696e-02

   13
0.0000000000e+00 0.0000000000e+00 0.0000000000e+00
0.0000000000e+00 -2.3233629164e+00 -2.3233629164e+00
     1      1      2
 1  1  1     8.2515479292e+00
 1  1  2     0.0000000000e+00
 1  1  3     0.0000000000e+00
 1  2  1     0.0000000000e+00
 1  2  2    -1.0574348294e-01
 1  2  3     0.0000000000e+00
 1  3  1     0.0000000000e+00
 1  3  2     0.0000000000e+00
 1  3  3    -1.0574348294e-01
 2  1  1     0.0000000000e+00
 2  1  2    -1.0574348294e-01
 2  1  3     0.0000000000e+00
 2  2  1    -3.1594144329e-01
 2  2  2     0.0000000000e+00
 2  2  3     0.0000000000e+00
 2  3  1     0.0000000000e+00
 2  3  2     0.0000000000e+00
 2  3  3     0.0000000000e+00
 3  1  1     0.0000000000e+00
 3  1  2     0.0000000000e+00
 3  1  3    -1.0574348294e-01
 3  2  1     0.0000000000e+00
 3  2  2     0.0000000000e+00
 3  2  3     0.0000000000e+00
 3  3  1    -3.1594144329e-01
 3  3  2     0.0000000000e+00
 3  3  3     0.0000000000e+00

   14
0.0000000000e+00 0.0000000000e+00 0.0000000000e+00
-2.3233629164e+00 -2.3233629164e+00 -2.5794510044e-16
     1      1      1
 1  1  1     7.0705339696e-02
 1  1  2     3.2777093318e-01
 1  1  3     0.0000000000e+00
 1  2  1     3.3554035766e-01
 1  2  2     3.3554035766e-01
 1  2  3     0.0000000000e+00
 1  3  1     0.0000000000e+00
 1  3  2     0.0000000000e+00
 1  3  3    -1.6144679339e-01
 2  1  1     3.3554035766e-01
 2  1  2     3.3554035766e-01
 2  1  3     0.0000000000e+00
 2  2  1     3.2777093318e-01
 2  2  2     7.0705339696e-02
 2  2  3     0.0000000000e+00
 2  3  1     0.0000000000e+00
 2  3  2     0.0000000000e+00
 2  3  3    -1.6144679339e-01
 3  1  1     0.0000000000e+00
 3  1  2     0.0000000000e+00
 3  1  3    -1.6144679339e-01
 3  2  1     0.0000000000e+00
 3  2  2     0.0000000000e+00
 3  2  3    -1.6144679339e-01
 3  3  1    -1.4106284018e-01
 3  3  2    -1.4106284018e-01
 3  3  3     0.0000000000e+00

   15
0.0000000000e+00 0.0000000000e+00 0.0000000000e+00
4.6467258328e+00 -2.3233629164e+00 -6.9700887493e+00
     1      1      2
 1  1  1    -5.4892386707e-02
 1  1  2     0.0000000000e+00
 1  1  3     9.9787164001e-03
 1  2  1     0.0000000000e+00
 1  2  2     1.1077664945e-02
 1  2  3     0.0000000000e+00
 1  3  1     2.9682728558e-02
 1  3  2     0.0000000000e+00
 1  3  3     2.9682728558e-02
 2  1  1     0.0000000000e+00
 2  1  2     1.1077664945e-02
 2  1  3     0.0000000000e+00
 2  2  1     6.4815872738e-03
 2  2  2     0.0000000000e+00
 2  2  3     6.4815872738e-03
 2  3  1     0.0000000000e+00
 2  3  2     1.1077664945e-02
 2  3  3     0.0000000000e+00
 3  1  1     2.9682728558e-02
 3  1  2     0.0000000000e+00
 3  1  3     2.9682728558e-02
 3  2  1     0.0000000000e+00
 3  2  2     1.1077664945e-02
 3  2  3     0.0000000000e+00
 3  3  1     9.9787164001e-03
 3  3  2     0.0000000000e+00
 3  3  3    -5.4892386707e-02

   16
0.0000000000e+00 0.0000000000e+00 0.0000000000e+00
2.3233629164e+00 -2.3233629164e+00 -4.6467258328e+00
     1      1      2
 1  1  1     0.0000000000e+00
 1  1  2     0.0000000000e+00
 1  1  3    -3.1594144329e-01
 1  2  1     0.0000000000e+00
 1  2  2     0.0000000000e+00
 1  2  3     0.0000000000e+00
 1  3  1    -1.0574348294e-01
 1  3  2     0.0000000000e+00
 1  3  3     0.0000000000e+00
 2  1  1     0.0000000000e+00
 2  1  2     0.0000000000e+00
 2  1  3     0.0000000000e+00
 2  2  1     0.0000000000e+00
 2  2  2     0.0000000000e+00
 2  2  3    -3.1594144329e-01
 2  3  1     0.0000000000e+00
 2  3  2    -1.0574348294e-01
 2  3  3     0.0000000000e+00
 3  1  1    -1.0574348294e-01
 3  1  2     0.0000000000e+00
 3  1  3     0.0000000000e+00
 3  2  1     0.0000000000e+00
 3  2  2    -1.0574348294e-01
 3  2  3     0.0000000000e+00
 3  3  1     0.0000000000e+00
 3  3  2     0.0000000000e+00
 3  3  3     8.2515479292e+00

   17
0.0000000000e+00 0.0000000000e+00 0.0000000000e+00
-2.3233629164e+00 2.3233629164e+00 0.0000000000e+00
     1      1      1
 1  1  1     7.0705339696e-02
 1  1  2    -3.2777093318e-01
 1  1  3     0.0000000000e+00
 1  2  1    -3.3554035766e-01
 1  2  2     3.3554035766e-01
 1  2  3     0.0000000000e+00
 1  3  1     0.0000000000e+00
 1  3  2     0.0000000000e+00
 1  3  3    -1.6144679339e-01
 2  1  1    -3.3554035766e-01
 2  1  2     3.3554035766e-01
 2  1  3     0.0000000000e+00
 2  2  1     3.2777093318e-01
 2  2  2    -7.0705339696e-02
 2  2  3     0.0000000000e+00
 2  3  1     0.0000000000e+00
 2  3  2     0.0000000000e+00
 2  3  3     1.6144679339e-01
 3  1  1     0.0000000000e+00
 3  1  2     0.0000000000e+00
 3  1  3    -1.6144679339e-01
 3  2  1     0.0000000000e+00
 3  2  2     0.0000000000e+00
 3  2  3     1.6144679339e-01
 3  3  1    -1.4106284018e-01
 3  3  2     1.4106284018e-01
 3  3  3     0.0000000000e+00

   18
0.0000000000e+00 0.0000000000e+00 0.0000000000e+00
4.6467258328e+00 -4.6467258328e+00 0.0000000000e+00
     1      1      2
 1  1  1    -4.0518979281e-02
 1  1  2    -4.1689552831e-02
 1  1  3     4.1689552831e-02
 1  2  1    -4.3148659609e-02
 1  2  2     4.3148659609e-02
 1  2  3    -9.3996303238e-02
 1  3  1     4.3148659609e-02
 1  3  2    -9.3996303238e-02
 1  3  3     4.3148659609e-02
 2  1  1    -4.3148659609e-02
 2  1  2     4.3148659609e-02
 2  1  3    -9.3996303238e-02
 2  2  1     4.1689552831e-02
 2  2  2     4.0518979281e-02
 2  2  3     4.1689552831e-02
 2  3  1    -9.3996303238e-02
 2  3  2     4.3148659609e-02
 2  3  3    -4.3148659609e-02
 3  1  1     4.3148659609e-02
 3  1  2    -9.3996303238e-02
 3  1  3     4.3148659609e-02
 3  2  1    -9.3996303238e-02
 3  2  2     4.3148659609e-02
 3  2  3    -4.3148659609e-02
 3  3  1     4.1689552831e-02
 3  3  2    -4.1689552831e-02
 3  3  3    -4.0518979281e-02

   19
0.0000000000e+00 0.0000000000e+00 0.0000000000e+00
2.3233629164e+00 2.3233629164e+00 -4.6467258328e+00
     1      1      2
 1  1  1     0.0000000000e+00
 1  1  2    -6.4815872738e-03
 1  1  3    -6.4815872738e-03
 1  2  1    -1.1077664945e-02
 1  2  2     0.0000000000e+00
 1  2  3     0.0000000000e+00
 1  3  1    -1.1077664945e-02
 1  3  2     0.0000000000e+00
 1  3  3     0.0000000000e+00
 2  1  1    -1.1077664945e-02
 2  1  2     0.0000000000e+00
 2  1  3     0.0000000000e+00
 2  2  1     0.0000000000e+00
 2  2  2     5.4892386707e-02
 2  2  3    -9.9787164001e-03
 2  3  1     0.0000000000e+00
 2  3  2    -2.9682728558e-02
 2  3  3    -2.9682728558e-02
 3  1  1    -1.1077664945e-02
 3  1  2     0.0000000000e+00
 3  1  3     0.0000000000e+00
 3  2  1     0.0000000000e+00
 3  2  2    -2.9682728558e-02
 3  2  3    -2.9682728558e-02
 3  3  1     0.0000000000e+00
 3  3  2    -9.9787164001e-03
 3  3  3     5.4892386707e-02

   20
0.0000000000e+00 0.0000000000e+00 0.0000000000e+00
4.0652830637e-16 2.3233629164e+00 -2.3233629164e+00
     1      1      1
 1  1  1     0.0000000000e+00
 1  1  2     1.4106284018e-01
 1  1  3    -1.4106284018e-01
 1  2  1     1.6144679339e-01
 1  2  2     0.0000000000e+00
 1  2  3     0.0000000000e+00
 1  3  1    -1.6144679339e-01
 1  3  2     0.0000000000e+00
 1  3  3     0.0000000000e+00
 2  1  1     1.6144679339e-01
 2  1  2     0.0000000000e+00
 2  1  3     0.0000000000e+00
 2  2  1     0.0000000000e+00
 2  2  2    -7.0705339696e-02
 2  2  3     3.2777093318e-01
 2  3  1     0.0000000000e+00
 2  3  2     3.3554035766e-01
 2  3  3    -3.3554035766e-01
 3  1  1    -1.6144679339e-01
 3  1  2     0.0000000000e+00
 3  1  3     0.0000000000e+00
 3  2  1     0.0000000000e+00
 3  2  2     3.3554035766e-01
 3  2  3    -3.3554035766e-01
 3  3  1     0.0000000000e+00
 3  3  2    -3.2777093318e-01
 3  3  3     7.0705339696e-02

   21
0.0000000000e+00 0.0000000000e+00 0.0000000000e+00
6.9700887493e+00 -4.6467258328e+00 -2.3233629164e+00
     1      1      2
 1  1  1     5.4892386707e-02
 1  1  2    -9.9787164001e-03
 1  1  3     0.0000000000e+00
 1  2  1    -2.9682728558e-02
 1  2  2    -2.9682728558e-02
 1  2  3     0.0000000000e+00
 1  3  1     0.0000000000e+00
 1  3  2     0.0000000000e+00
 1  3  3    -1.1077664945e-02
 2  1  1    -2.9682728558e-02
 2  1  2    -2.9682728558e-02
 2  1  3     0.0000000000e+00
 2  2  1    -9.9787164001e-03
 2  2  2     5.4892386707e-02
 2  2  3     0.0000000000e+00
 2  3  1     0.0000000000e+00
 2  3  2     0.0000000000e+00
 2  3  3    -1.1077664945e-02
 3  1  1     0.0000000000e+00
 3  1  2     0.0000000000e+00
 3  1  3    -1.1077664945e-02
 3  2  1     0.0000000000e+00
 3  2  2     0.0000000000e+00
 3  2  3    -1.1077664945e-02
 3  3  1    -6.4815872738e-03
 3  3  2    -6.4815872738e-03
 3  3  3     0.0000000000e+00

   22
0.0000000000e+00 0.0000000000e+00 0.0000000000e+00
-2.3233629164e+00 -2.3233629164e+00 -4.6467258328e+00
     1      1      2
 1  1  1    -5.4892386707e-02
 1  1  2     0.0000000000e+00
 1  1  3    -9.9787164001e-03
 1  2  1     0.0000000000e+00
 1  2  2     1.1077664945e-02
 1  2  3     0.0000000000e+00
 1  3  1    -2.9682728558e-02
 1  3  2     0.0000000000e+00
 1  3  3     2.9682728558e-02
 2  1  1     0.0000000000e+00
 2  1  2     1.1077664945e-02
 2  1  3     0.0000000000e+00
 2  2  1     6.4815872738e-03
 2  2  2     0.0000000000e+00
 2  2  3    -6.4815872738e-03
 2  3  1     0.0000000000e+00
 2  3  2    -1.1077664945e-02
 2  3  3     0.0000000000e+00
 3  1  1    -2.9682728558e-02
 3  1  2     0.0000000000e+00
 3  1  3     2.9682728558e-02
 3  2  1     0.0000000000e+00
 3  2  2    -1.1077664945e-02
 3  2  3     0.0000000000e+00
 3  3  1     9.9787164001e-03
 3  3  2     0.0000000000e+00
 3  3  3     5.4892386707e-02

   23
0.0000000000e+00 0.0000000000e+00 0.0000000000e+00
4.0652830637e-16 4.6467258328e+00 -4.0652830637e-16
     1      1      1
 1  1  1     0.0000000000e+00
 1  1  2     5.3511294904e-02
 1  1  3     0.0000000000e+00
 1  2  1     3.9392651064e-02
 1  2  2     0.0000000000e+00
 1  2  3     0.0000000000e+00
 1  3  1     0.0000000000e+00
 1  3  2     0.0000000000e+00
 1  3  3     0.0000000000e+00
 2  1  1     3.9392651064e-02
 2  1  2     0.0000000000e+00
 2  1  3     0.0000000000e+00
 2  2  1     0.0000000000e+00
 2  2  2    -7.8418649481e-02
 2  2  3     0.0000000000e+00
 2  3  1     0.0000000000e+00
 2  3  2     0.0000000000e+00
 2  3  3     3.9392651064e-02
 3  1  1     0.0000000000e+00
 3  1  2     0.0000000000e+00
 3  1  3     0.0000000000e+00
 3  2  1     0.0000000000e+00
 3  2  2     0.0000000000e+00
 3  2  3     3.9392651064e-02
 3  3  1     0.0000000000e+00
 3  3  2     5.3511294904e-02
 3  3  3     0.0000000000e+00

   24
0.0000000000e+00 0.0000000000e+00 0.0000000000e+00
-8.1305661275e-16 -2.3233629164e+00 -6.9700887493e+00
     1      1      2
 1  1  1     5.4892386707e-02
 1  1  2     0.0000000000e+00
 1  1  3     9.9787164001e-03
 1  2  1     0.0000000000e+00
 1  2  2    -1.1077664945e-02
 1  2  3     0.0000000000e+00
 1  3  1     2.9682728558e-02
 1  3  2     0.0000000000e+00
 1  3  3    -2.9682728558e-02
 2  1  1     0.0000000000e+00
 2  1  2    -1.1077664945e-02
 2  1  3     0.0000000000e+00
 2  2  1    -6.4815872738e-03
 2  2  2     0.0000000000e+00
 2  2  3     6.4815872738e-03
 2  3  1     0.0000000000e+00
 2  3  2     1.1077664945e-02
 2  3  3     0.0000000000e+00
 3  1  1     2.9682728558e-02
 3  1  2     0.0000000000e+00
 3  1  3    -2.9682728558e-02
 3  2  1     0.0000000000e+00
 3  2  2     1.1077664945e-02
 3  2  3     0.0000000000e+00
 3  3  1    -9.9787164001e-03
 3  3  2     0.0000000000e+00
 3  3  3    -5.4892386707e-02

   25
0.0000000000e+00 0.0000000000e+00 0.0000000000e+00
-2.3233629164e+00 -4.0652830637e-16 -2.3233629164e+00
     1      1      1
 1  1  1     7.0705339696e-02
 1  1  2     0.0000000000e+00
 1  1  3     3.2777093318e-01
 1  2  1     0.0000000000e+00
 1  2  2    -1.6144679339e-01
 1  2  3     0.0000000000e+00
 1  3  1     3.3554035766e-01
 1  3  2     0.0000000000e+00
 1  3  3     3.3554035766e-01
 2  1  1     0.0000000000e+00
 2  1  2    -1.6144679339e-01
 2  1  3     0.0000000000e+00
 2  2  1    -1.4106284018e-01
 2  2  2     0.0000000000e+00
 2  2  3    -1.4106284018e-01
 2  3  1     0.0000000000e+00
 2  3  2    -1.6144679339e-01
 2  3  3     0.0000000000e+00
 3  1  1     3.3554035766e-01
 3  1  2     0.0000000000e+00
 3  1  3     3.3554035766e-01
 3  2  1     0.0000000000e+00
 3  2  2    -1.6144679339e-01
 3  2  3     0.0000000000e+00
 3  3  1     3.2777093318e-01
 3  3  2     0.0000000000e+00
 3  3  3     7.0705339696e-02

   26
0.0000000000e+00 0.0000000000e+00 0.0000000000e+00
4.6467258328e+00 -6.9700887493e+00 -2.3233629164e+00
     1      1      2
 1  1  1    -5.4892386707e-02
 1  1  2     9.9787164001e-03
 1  1  3     0.0000000000e+00
 1  2  1     2.9682728558e-02
 1  2  2     2.9682728558e-02
 1  2  3     0.0000000000e+00
 1  3  1     0.0000000000e+00
 1  3  2     0.0000000000e+00
 1  3  3     1.1077664945e-02
 2  1  1     2.9682728558e-02
 2  1  2     2.9682728558e-02
 2  1  3     0.0000000000e+00
 2  2  1     9.9787164001e-03
 2  2  2    -5.4892386707e-02
 2  2  3     0.0000000000e+00
 2  3  1     0.0000000000e+00
 2  3  2     0.0000000000e+00
 2  3  3     1.1077664945e-02
 3  1  1     0.0000000000e+00
 3  1  2     0.0000000000e+00
 3  1  3     1.1077664945e-02
 3  2  1     0.0000000000e+00
 3  2  2     0.0000000000e+00
 3  2  3     1.1077664945e-02
 3  3  1     6.4815872738e-03
 3  3  2     6.4815872738e-03
 3  3  3     0.0000000000e+00

   27
0.0000000000e+00 0.0000000000e+00 0.0000000000e+00
-4.6467258328e+00 -4.0652830637e-16 -2.5794510044e-16
     1      1      1
 1  1  1     7.8418649481e-02
 1  1  2     0.0000000000e+00
 1  1  3     0.0000000000e+00
 1  2  1     0.0000000000e+00
 1  2  2    -3.9392651064e-02
 1  2  3     0.0000000000e+00
 1  3  1     0.0000000000e+00
 1  3  2     0.0000000000e+00
 1  3  3    -3.9392651064e-02
 2  1  1     0.0000000000e+00
 2  1  2    -3.9392651064e-02
 2  1  3     0.0000000000e+00
 2  2  1    -5.3511294904e-02
 2  2  2     0.0000000000e+00
 2  2  3     0.0000000000e+00
 2  3  1     0.0000000000e+00
 2  3  2     0.0000000000e+00
 2  3  3     0.0000000000e+00
 3  1  1     0.0000000000e+00
 3  1  2     0.0000000000e+00
 3  1  3    -3.9392651064e-02
 3  2  1     0.0000000000e+00
 3  2  2     0.0000000000e+00
 3  2  3     0.0000000000e+00
 3  3  1    -5.3511294904e-02
 3  3  2     0.0000000000e+00
 3  3  3     0.0000000000e+00

   28
0.0000000000e+00 0.0000000000e+00 0.0000000000e+00
2.3233629164e+00 8.1305661275e-16 -6.9700887493e+00
     1      1      2
 1  1  1     0.0000000000e+00
 1  1  2     6.4815872738e-03
 1  1  3     6.4815872738e-03
 1  2  1     1.1077664945e-02
 1  2  2     0.0000000000e+00
 1  2  3     0.0000000000e+00
 1  3  1     1.1077664945e-02
 1  3  2     0.0000000000e+00
 1  3  3     0.0000000000e+00
 2  1  1     1.1077664945e-02
 2  1  2     0.0000000000e+00
 2  1  3     0.0000000000e+00
 2  2  1     0.0000000000e+00
 2  2  2    -5.4892386707e-02
 2  2  3     9.9787164001e-03
 2  3  1     0.0000000000e+00
 2  3  2     2.9682728558e-02
 2  3  3     2.9682728558e-02
 3  1  1     1.1077664945e-02
 3  1  2     0.0000000000e+00
 3  1  3     0.0000000000e+00
 3  2  1     0.0000000000e+00
 3  2  2     2.9682728558e-02
 3  2  3     2.9682728558e-02
 3  3  1     0.0000000000e+00
 3  3  2     9.9787164001e-03
 3  3  3    -5.4892386707e-02

   29
0.0000000000e+00 0.0000000000e+00 0.0000000000e+00
4.0652830637e-16 -4.0652830637e-16 -4.6467258328e+00
     1      1      1
 1  1  1     0.0000000000e+00
 1  1  2     0.0000000000e+00
 1  1  3    -5.3511294904e-02
 1  2  1     0.0000000000e+00
 1  2  2     0.0000000000e+00
 1  2  3     0.0000000000e+00
 1  3  1    -3.9392651064e-02
 1  3  2     0.0000000000e+00
 1  3  3     0.0000000000e+00
 2  1  1     0.0000000000e+00
 2  1  2     0.0000000000e+00
 2  1  3     0.0000000000e+00
 2  2  1     0.0000000000e+00
 2  2  2     0.0000000000e+00
 2  2  3    -5.3511294904e-02
 2  3  1     0.0000000000e+00
 2  3  2    -3.9392651064e-02
 2  3  3     0.0000000000e+00
 3  1  1    -3.9392651064e-02
 3  1  2     0.0000000000e+00
 3  1  3     0.0000000000e+00
 3  2  1     0.0000000000e+00
 3  2  2    -3.9392651064e-02
 3  2  3     0.0000000000e+00
 3  3  1     0.0000000000e+00
 3  3  2     0.0000000000e+00
 3  3  3     7.8418649481e-02

   30
0.0000000000e+00 0.0000000000e+00 0.0000000000e+00
-8.1305661275e-16 8.1305661275e-16 -4.6467258328e+00
     1      1      2
 1  1  1     4.0518979281e-02
 1  1  2     4.1689552831e-02
 1  1  3    -4.1689552831e-02
 1  2  1     4.3148659609e-02
 1  2  2    -4.3148659609e-02
 1  2  3     9.3996303238e-02
 1  3  1    -4.3148659609e-02
 1  3  2     9.3996303238e-02
 1  3  3    -4.3148659609e-02
 2  1  1     4.3148659609e-02
 2  1  2    -4.3148659609e-02
 2  1  3     9.3996303238e-02
 2  2  1    -4.1689552831e-02
 2  2  2    -4.0518979281e-02
 2  2  3    -4.1689552831e-02
 2  3  1     9.3996303238e-02
 2  3  2    -4.3148659609e-02
 2  3  3     4.3148659609e-02
 3  1  1    -4.3148659609e-02
 3  1  2     9.3996303238e-02
 3  1  3    -4.3148659609e-02
 3  2  1     9.3996303238e-02
 3  2  2    -4.3148659609e-02
 3  2  3     4.3148659609e-02
 3  3  1    -4.1689552831e-02
 3  3  2     4.1689552831e-02
 3  3  3     4.0518979281e-02

   31
0.0000000000e+00 0.0000000000e+00 0.0000000000e+00
2.3233629164e+00 -2.3233629164e+00 0.0000000000e+00
     1      1      1
 1  1  1    -7.0705339696e-02
 1  1  2     3.2777093318e-01
 1  1  3     0.0000000000e+00
 1  2  1     3.3554035766e-01
 1  2  2    -3.3554035766e-01
 1  2  3     0.0000000000e+00
 1  3  1     0.0000000000e+00
 1  3  2     0.0000000000e+00
 1  3  3     1.6144679339e-01
 2  1  1     3.3554035766e-01
 2  1  2    -3.3554035766e-01
 2  1  3     0.0000000000e+00
 2  2  1    -3.2777093318e-01
 2  2  2     7.0705339696e-02
 2  2  3     0.0000000000e+00
 2  3  1     0.0000000000e+00
 2  3  2     0.0000000000e+00
 2  3  3    -1.6144679339e-01
 3  1  1     0.0000000000e+00
 3  1  2     0.0000000000e+00
 3  1  3     1.6144679339e-01
 3  2  1     0.0000000000e+00
 3  2  2     0.0000000000e+00
 3  2  3    -1.6144679339e-01
 3  3  1     1.4106284018e-01
 3  3  2    -1.4106284018e-01
 3  3  3     0.0000000000e+00

   32
0.0000000000e+00 0.0000000000e+00 0.0000000000e+00
2.3233629164e+00 -2.3233629164e+00 0.0000000000e+00
     1      1      2
 1  1  1     0.0000000000e+00
 1  1  2     0.0000000000e+00
 1  1  3     3.1594144329e-01
 1  2  1     0.0000000000e+00
 1  2  2     0.0000000000e+00
 1  2  3     0.0000000000e+00
 1  3  1     1.0574348294e-01
 1  3  2     0.0000000000e+00
 1  3  3     0.0000000000e+00
 2  1  1     0.0000000000e+00
 2  1  2     0.0000000000e+00
 2  1  3     0.0000000000e+00
 2  2  1     0.0000000000e+00
 2  2  2     0.0000000000e+00
 2  2  3     3.1594144329e-01
 2  3  1     0.0000000000e+00
 2  3  2     1.0574348294e-01
 2  3  3     0.0000000000e+00
 3  1  1     1.0574348294e-01
 3  1  2     0.0000000000e+00
 3  1  3     0.0000000000e+00
 3  2  1     0.0000000000e+00