   0.94999E+00   0.70640E-02   0.24041E-02   0.24041E-02
   0.19000E+01   0.74161E-02   0.25660E-02   0.25660E-02
   0.28500E+01   0.91190E-02   0.32076E-02   0.32076E-02
   0.38000E+01   0.88112E-02   0.31290E-02   0.31290E-02
   0.47499E+01   0.10565E-01   0.37975E-02   0.37975E-02
   0.56999E+01   0.11413E-01   0.41431E-02   0.41431E-02
   0.66499E+01   0.12170E-01   0.44341E-02   0.44341E-02
   0.75999E+01   0.12428E-01   0.45588E-02   0.45588E-02
   0.85499E+01   0.13499E-01   0.49595E-02   0.49595E-02
   0.94999E+01   0.14424E-01   0.53217E-02   0.53217E-02
   0.10450E+02   0.15410E-01   0.57108E-02   0.57108E-02
   0.11400E+02   0.17021E-01   0.63030E-02   0.63030E-02
   0.12350E+02   0.18056E-01   0.67218E-02   0.67218E-02
   0.13300E+02   0.19807E-01   0.73777E-02   0.73777E-02
   0.14250E+02   0.21423E-01   0.79856E-02   0.79856E-02
   0.15200E+02   0.22730E-01   0.85100E-02   0.85100E-02
   0.16150E+02   0.24838E-01   0.92775E-02   0.92775E-02
   0.17100E+02   0.26504E-01   0.99085E-02   0.99085E-02
   0.18050E+02   0.27980E-01   0.10478E-01   0.10478E-01
   0.19000E+02   0.30137E-01   0.11239E-01   0.11239E-01
   0.19950E+02   0.31488E-01   0.11735E-01   0.11735E-01
   0.20900E+02   0.31913E-01   0.11899E-01   0.11899E-01
   0.21850E+02   0.33922E-01   0.12575E-01   0.12575E-01
   0.22800E+02   0.38805E-01   0.14297E-01   0.14297E-01
   0.23750E+02   0.41961E-01   0.15400E-01   0.15400E-01
   0.24700E+02   0.43884E-01   0.15987E-01   0.15987E-01
   0.25650E+02   0.48636E-01   0.17530E-01   0.17530E-01
   0.26600E+02   0.56607E-01   0.20207E-01   0.20207E-01
   0.27550E+02   0.71371E-01   0.25373E-01   0.25373E-01
   0.28500E+02   0.91190E-01   0.32394E-01   0.32394E-01
   0.29450E+02   0.84135E-01   0.28550E-01   0.28550E-01
   0.30400E+02   0.88730E-01   0.28764E-01   0.28764E-01
   0.31350E+02   0.10845E+00   0.33429E-01   0.33429E-01
   0.32300E+02   0.11597E+00   0.34406E-01   0.34406E-01
   0.33250E+02   0.95821E-01   0.25870E-01   0.25870E-01
   0.34200E+02   0.20968E+00   0.35764E-01   0.35764E-01
   0.35150E+02   0.20792E-01   0.48168E-02   0.48168E-02
   0.36100E+02   0.23664E-01   0.53437E-02   0.53437E-02
   0.37050E+02   0.29810E-01   0.66107E-02   0.66107E-02
   0.38000E+02   0.38872E-01   0.86630E-02   0.86630E-02
   0.38950E+02   0.50856E-01   0.11983E-01   0.11983E-01
   0.39900E+02   0.63441E-01   0.15868E-01   0.15868E-01
   0.40850E+02   0.82871E-01   0.21547E-01   0.21547E-01
   0.41800E+02   0.95086E-01   0.24126E-01   0.24126E-01
   0.42750E+02   0.82235E-01   0.19121E-01   0.19121E-01
   0.43700E+02   0.00000E+00   0.00000E+00   0.00000E+00
   0.44650E+02   0.00000E+00   0.00000E+00   0.00000E+00
   0.45600E+02   0.00000E+00   0.00000E+00   0.00000E+00
   0.46549E+02   0.00000E+00   0.00000E+00   0.00000E+00
   0.47499E+02   0.00000E+00   0.00000E+00   0.00000E+00
   0.48449E+02   0.00000E+00   0.00000E+00   0.00000E+00
   0.49399E+02   0.00000E+00   0.00000E+00   0.00000E+00
   0.50349E+02   0.00000E+00   0.00000E+00   0.00000E+00
   0.51299E+02   0.00000E+00   0.00000E+00   0.00000E+00
   0.52249E+02   0.00000E+00   0.00000E+00   0.00000E+00
   0.53199E+02   0.17613E-03   0.51132E-01   0.51132E-01
   0.54149E+02   0.42572E-03   0.74991E-01   0.74991E-01
   0.55099E+02   0.76133E-03   0.90553E-01   0.90553E-01
   0.56049E+02   0.12434E-02   0.13259E+00   0.13259E+00
   0.56999E+02   0.18804E-02   0.92346E-01   0.92346E-01
   0.57949E+02   0.21741E-02   0.75703E-01   0.75703E-01
   0.58899E+02   0.19926E-02   0.15242E+00   0.15242E+00
   0.59849E+02   0.15985E-02   0.32188E-01   0.32188E-01
   0.60799E+02   0.61272E-02   0.29803E+00   0.29803E+00
   0.61749E+02   0.35042E-03   0.52748E-01   0.52748E-01
   0.62699E+02   0.14348E-02   0.49872E-01   0.49872E-01
   0.63649E+02   0.68483E-02   0.12031E+00   0.12031E+00
   0.64599E+02   0.26249E-01   0.30622E+00   0.30622E+00
   0.65549E+02   0.10946E-01   0.35743E-01   0.35743E-01
   0.66499E+02   0.11176E-01   0.26316E-01   0.26316E-01
   0.67449E+02   0.92381E-01   0.73008E-01   0.73008E-01
   0.68399E+02   0.21107E+00   0.14777E+00   0.14777E+00
   0.69349E+02   0.20040E+00   0.14479E+00   0.14479E+00
   0.70299E+02   0.14832E+00   0.11486E+00   0.11486E+00
   0.71249E+02   0.52399E-01   0.38107E-01   0.38107E-01
   0.72199E+02   0.55984E-01   0.65106E-01   0.65106E-01
   0.73149E+02   0.58468E-01   0.74033E-01   0.74033E-01
   0.74099E+02   0.78571E-01   0.11083E+00   0.11083E+00
   0.75049E+02   0.29707E+00   0.67065E+00   0.67065E+00
   0.75999E+02   0.16825E-01   0.11387E-01   0.11387E-01
   0.76949E+02   0.14004E-01   0.95390E-02   0.95390E-02
   0.77899E+02   0.14231E-01   0.97616E-02   0.97616E-02
   0.78849E+02   0.12969E-01   0.89706E-02   0.89706E-02
   0.79799E+02   0.11774E-01   0.82117E-02   0.82117E-02
   0.80749E+02   0.12347E-01   0.86914E-02   0.86914E-02
   0.81699E+02   0.11511E-01   0.81830E-02   0.81830E-02
   0.82649E+02   0.10569E-01   0.75889E-02   0.75889E-02
   0.83599E+02   0.10592E-01   0.76845E-02   0.76845E-02
   0.84549E+02   0.93316E-02   0.68388E-02   0.68388E-02
   0.85499E+02   0.81692E-02   0.60511E-02   0.60511E-02
   0.86449E+02   0.00000E+00   0.00000E+00   0.00000E+00
   0.87399E+02   0.00000E+00   0.00000E+00   0.00000E+00
   0.88349E+02   0.00000E+00   0.00000E+00   0.00000E+00
   0.89299E+02   0.00000E+00   0.00000E+00   0.00000E+00
   0.90249E+02   0.00000E+00   0.00000E+00   0.00000E+00
   0.91199E+02   0.00000E+00   0.00000E+00   0.00000E+00
   0.92149E+02   0.00000E+00   0.00000E+00   0.00000E+00
   0.93099E+02   0.00000E+00   0.00000E+00   0.00000E+00
   0.94049E+02   0.00000E+00   0.00000E+00   0.00000E+00
   0.94999E+02   0.00000E+00   0.00000E+00   0.00000E+00
