 1989

    1
0.0000000000e+00 0.0000000000e+00 0.0000000000e+00
0.0000000000e+00 0.0000000000e+00 0.0000000000e+00
     1      1      1
 1  1  1     0.0000000000e+00
 1  1  2     0.0000000000e+00
 1  1  3     0.0000000000e+00
 1  2  1     0.0000000000e+00
 1  2  2     0.0000000000e+00
 1  2  3     0.0000000000e+00
 1  3  1     0.0000000000e+00
 1  3  2     0.0000000000e+00
 1  3  3     0.0000000000e+00
 2  1  1     0.0000000000e+00
 2  1  2     0.0000000000e+00
 2  1  3     0.0000000000e+00
 2  2  1     0.0000000000e+00
 2  2  2     0.0000000000e+00
 2  2  3     0.0000000000e+00
 2  3  1     0.0000000000e+00
 2  3  2     0.0000000000e+00
 2  3  3     0.0000000000e+00
 3  1  1     0.0000000000e+00
 3  1  2     0.0000000000e+00
 3  1  3     0.0000000000e+00
 3  2  1     0.0000000000e+00
 3  2  2     0.0000000000e+00
 3  2  3     0.0000000000e+00
 3  3  1     0.0000000000e+00
 3  3  2     0.0000000000e+00
 3  3  3     0.0000000000e+00

    2
0.0000000000e+00 0.0000000000e+00 0.0000000000e+00
0.0000000000e+00 0.0000000000e+00 0.0000000000e+00
     1      1      2
 1  1  1    -3.8351203451e+00
 1  1  2     7.1411914528e-01
 1  1  3    -1.0139756928e+01
 1  2  1    -2.9448298977e-01
 1  2  2    -6.9605673569e-01
 1  2  3     4.6148443047e+00
 1  3  1    -1.0309503259e+01
 1  3  2     6.0152864907e+00
 1  3  3    -9.4621910872e+00
 2  1  1    -2.9448298977e-01
 2  1  2    -6.9605673569e-01
 2  1  3     4.6148443047e+00
 2  2  1    -2.4430068798e+00
 2  2  2     2.9105593018e+00
 2  2  3    -4.8109937327e+00
 2  3  1     6.0152864907e+00
 2  3  2    -3.3636487165e+00
 2  3  3     5.4629985739e+00
 3  1  1    -1.0309503259e+01
 3  1  2     6.0152864907e+00
 3  1  3    -9.4621910872e+00
 3  2  1     6.0152864907e+00
 3  2  2    -3.3636487165e+00
 3  2  3     5.4629985739e+00
 3  3  1    -9.6637027739e+00
 3  3  2     5.5793414005e+00
 3  3  3    -9.7586578336e+00

    3
0.0000000000e+00 0.0000000000e+00 0.0000000000e+00
0.0000000000e+00 0.0000000000e+00 0.0000000000e+00
     1      1      3
 1  1  1    -3.8351203451e+00
 1  1  2     7.1411914528e-01
 1  1  3     1.0139756928e+01
 1  2  1    -2.9448298977e-01
 1  2  2    -6.9605673569e-01
 1  2  3    -4.6148443047e+00
 1  3  1     1.0309503259e+01
 1  3  2    -6.0152864907e+00
 1  3  3    -9.4621910872e+00
 2  1  1    -2.9448298977e-01
 2  1  2    -6.9605673569e-01
 2  1  3    -4.6148443047e+00
 2  2  1    -2.4430068798e+00
 2  2  2     2.9105593018e+00
 2  2  3     4.8109937327e+00
 2  3  1    -6.0152864907e+00
 2  3  2     3.3636487165e+00
 2  3  3     5.4629985739e+00
 3  1  1     1.0309503259e+01
 3  1  2    -6.0152864907e+00
 3  1  3    -9.4621910872e+00
 3  2  1    -6.0152864907e+00
 3  2  2     3.3636487165e+00
 3  2  3     5.4629985739e+00
 3  3  1    -9.6637027739e+00
 3  3  2     5.5793414005e+00
 3  3  3     9.7586578336e+00

    4
0.0000000000e+00 0.0000000000e+00 0.0000000000e+00
3.1838400910e+00 0.0000000000e+00 0.0000000000e+00
     1      1      1
 1  1  1    -6.6218764504e+00
 1  1  2     3.9140022959e+00
 1  1  3     0.0000000000e+00
 1  2  1     3.1095738967e-01
 1  2  2    -3.1418508890e-01
 1  2  3     0.0000000000e+00
 1  3  1     0.0000000000e+00
 1  3  2     0.0000000000e+00
 1  3  3    -8.6123922563e-01
 2  1  1     3.1095738967e-01
 2  1  2    -3.1418508890e-01
 2  1  3     0.0000000000e+00
 2  2  1     4.5013682737e-01
 2  2  2     2.5761857130e-01
 2  2  3     0.0000000000e+00
 2  3  1     0.0000000000e+00
 2  3  2     0.0000000000e+00
 2  3  3    -1.3334368127e+00
 3  1  1     0.0000000000e+00
 3  1  2     0.0000000000e+00
 3  1  3    -8.6123922563e-01
 3  2  1     0.0000000000e+00
 3  2  2     0.0000000000e+00
 3  2  3    -1.3334368127e+00
 3  3  1    -1.8401708251e+00
 3  3  2    -1.0932071254e+00
 3  3  3     0.0000000000e+00

    5
0.0000000000e+00 0.0000000000e+00 0.0000000000e+00
3.1838400910e+00 0.0000000000e+00 0.0000000000e+00
     1      1      2
 1  1  1    -2.1922696263e-02
 1  1  2    -1.0632328476e-01
 1  1  3     6.7480590644e-02
 1  2  1     2.1716047735e-02
 1  2  2     3.4980517146e-02
 1  2  3     5.4708814432e-02
 1  3  1    -1.0212171259e-01
 1  3  2     8.6156690310e-02
 1  3  3    -1.1102572574e-02
 2  1  1     2.1716047735e-02
 2  1  2     3.4980517146e-02
 2  1  3     5.4708814432e-02
 2  2  1     4.9557263878e-02
 2  2  2     2.5402760809e-02
 2  2  3     1.3161648388e-01
 2  3  1    -5.9782512755e-02
 2  3  2    -7.3932308489e-02
 2  3  3     1.7917637431e-01
 3  1  1    -1.0212171259e-01
 3  1  2     8.6156690310e-02
 3  1  3    -1.1102572574e-02
 3  2  1    -5.9782512755e-02
 3  2  2    -7.3932308489e-02
 3  2  3     1.7917637431e-01
 3  3  1     1.6958470364e-01
 3  3  2     7.4729578711e-02
 3  3  3    -1.5342054511e-01

    6
0.0000000000e+00 0.0000000000e+00 0.0000000000e+00
3.1838400910e+00 0.0000000000e+00 0.0000000000e+00
     1      1      3
 1  1  1    -2.1922696263e-02
 1  1  2    -1.0632328476e-01
 1  1  3    -6.7480590644e-02
 1  2  1     2.1716047735e-02
 1  2  2     3.4980517146e-02
 1  2  3    -5.4708814432e-02
 1  3  1     1.0212171259e-01
 1  3  2    -8.6156690310e-02
 1  3  3    -1.1102572574e-02
 2  1  1     2.1716047735e-02
 2  1  2     3.4980517146e-02
 2  1  3    -5.4708814432e-02
 2  2  1     4.9557263878e-02
 2  2  2     2.5402760809e-02
 2  2  3    -1.3161648388e-01
 2  3  1     5.9782512755e-02
 2  3  2     7.3932308489e-02
 2  3  3     1.7917637431e-01
 3  1  1     1.0212171259e-01
 3  1  2    -8.6156690310e-02
 3  1  3    -1.1102572574e-02
 3  2  1     5.9782512755e-02
 3  2  2     7.3932308489e-02
 3  2  3     1.7917637431e-01
 3  3  1     1.6958470364e-01
 3  3  2     7.4729578711e-02
 3  3  3     1.5342054511e-01

    7
0.0000000000e+00 0.0000000000e+00 0.0000000000e+00
-6.3676801820e+00 0.0000000000e+00 0.0000000000e+00
     1      1      2
 1  1  1     2.1922696286e-02
 1  1  2    -1.0632328474e-01
 1  1  3     6.7480590683e-02
 1  2  1     2.1716047766e-02
 1  2  2    -3.4980517155e-02
 1  2  3    -5.4708814479e-02
 1  3  1    -1.0212171258e-01
 1  3  2    -8.6156690283e-02
 1  3  3     1.1102572509e-02
 2  1  1     2.1716047766e-02
 2  1  2    -3.4980517155e-02
 2  1  3    -5.4708814479e-02
 2  2  1    -4.9557263887e-02
 2  2  2     2.5402760809e-02
 2  2  3     1.3161648388e-01
 2  3  1     5.9782512782e-02
 2  3  2    -7.3932308489e-02
 2  3  3     1.7917637431e-01
 3  1  1    -1.0212171258e-01
 3  1  2    -8.6156690283e-02
 3  1  3     1.1102572509e-02
 3  2  1     5.9782512782e-02
 3  2  2    -7.3932308489e-02
 3  2  3     1.7917637431e-01
 3  3  1    -1.6958470367e-01
 3  3  2     7.4729578711e-02
 3  3  3    -1.5342054511e-01

    8
0.0000000000e+00 0.0000000000e+00 0.0000000000e+00
-6.3676801820e+00 0.0000000000e+00 0.0000000000e+00
     1      1      3
 1  1  1     2.1922696286e-02
 1  1  2    -1.0632328474e-01
 1  1  3    -6.7480590683e-02
 1  2  1     2.1716047766e-02
 1  2  2    -3.4980517155e-02
 1  2  3     5.4708814479e-02
 1  3  1     1.0212171258e-01
 1  3  2     8.6156690283e-02
 1  3  3     1.1102572509e-02
 2  1  1     2.1716047766e-02
 2  1  2    -3.4980517155e-02
 2  1  3     5.4708814479e-02
 2  2  1    -4.9557263887e-02
 2  2  2     2.5402760809e-02
 2  2  3    -1.3161648388e-01
 2  3  1    -5.9782512782e-02
 2  3  2     7.3932308489e-02
 2  3  3     1.7917637431e-01
 3  1  1     1.0212171258e-01
 3  1  2     8.6156690283e-02
 3  1  3     1.1102572509e-02
 3  2  1    -5.9782512782e-02
 3  2  2     7.3932308489e-02
 3  2  3     1.7917637431e-01
 3  3  1    -1.6958470367e-01
 3  3  2     7.4729578711e-02
 3  3  3     1.5342054511e-01

    9
0.0000000000e+00 0.0000000000e+00 0.0000000000e+00
-3.1838400910e+00 0.0000000000e+00 0.0000000000e+00
     1      1      1
 1  1  1     6.6218764488e+00
 1  1  2     3.9140022957e+00
 1  1  3     0.0000000000e+00
 1  2  1     3.1095738972e-01
 1  2  2     3.1418508881e-01
 1  2  3     0.0000000000e+00
 1  3  1     0.0000000000e+00
 1  3  2     0.0000000000e+00
 1  3  3     8.6123922611e-01
 2  1  1     3.1095738972e-01
 2  1  2     3.1418508881e-01
 2  1  3     0.0000000000e+00
 2  2  1    -4.5013682746e-01
 2  2  2     2.5761857130e-01
 2  2  3     0.0000000000e+00
 2  3  1     0.0000000000e+00
 2  3  2     0.0000000000e+00
 2  3  3    -1.3334368127e+00
 3  1  1     0.0000000000e+00
 3  1  2     0.0000000000e+00
 3  1  3     8.6123922611e-01
 3  2  1     0.0000000000e+00
 3  2  2     0.0000000000e+00
 3  2  3    -1.3334368127e+00
 3  3  1     1.8401708254e+00
 3  3  2    -1.0932071254e+00
 3  3  3     0.0000000000e+00

   10
0.0000000000e+00 0.0000000000e+00 0.0000000000e+00
-3.1838400910e+00 0.0000000000e+00 0.0000000000e+00
     1      1      2
 1  1  1     3.8351203451e+00
 1  1  2     7.1411914478e-01
 1  1  3    -1.0139756924e+01
 1  2  1    -2.9448299091e-01
 1  2  2     6.9605673463e-01
 1  2  3    -4.6148443029e+00
 1  3  1    -1.0309503255e+01
 1  3  2    -6.0152864894e+00
 1  3  3     9.4621910852e+00
 2  1  1    -2.9448299091e-01
 2  1  2     6.9605673463e-01
 2  1  3    -4.6148443029e+00
 2  2  1     2.4430068787e+00
 2  2  2     2.9105593018e+00
 2  2  3    -4.8109937327e+00
 2  3  1    -6.0152864894e+00
 2  3  2    -3.3636487165e+00
 2  3  3     5.4629985739e+00
 3  1  1    -1.0309503255e+01
 3  1  2    -6.0152864894e+00
 3  1  3     9.4621910852e+00
 3  2  1    -6.0152864894e+00
 3  2  2    -3.3636487165e+00
 3  2  3     5.4629985739e+00
 3  3  1     9.6637027719e+00
 3  3  2     5.5793414005e+00
 3  3  3    -9.7586578336e+00

   11
0.0000000000e+00 0.0000000000e+00 0.0000000000e+00
-3.1838400910e+00 0.0000000000e+00 0.0000000000e+00
     1      1      3
 1  1  1     3.8351203451e+00
 1  1  2     7.1411914478e-01
 1  1  3     1.0139756924e+01
 1  2  1    -2.9448299091e-01
 1  2  2     6.9605673463e-01
 1  2  3     4.6148443029e+00
 1  3  1     1.0309503255e+01
 1  3  2     6.0152864894e+00
 1  3  3     9.4621910852e+00
 2  1  1    -2.9448299091e-01
 2  1  2     6.9605673463e-01
 2  1  3     4.6148443029e+00
 2  2  1     2.4430068787e+00
 2  2  2     2.9105593018e+00
 2  2  3     4.8109937327e+00
 2  3  1     6.0152864894e+00
 2  3  2     3.3636487165e+00
 2  3  3     5.4629985739e+00
 3  1  1     1.0309503255e+01
 3  1  2     6.0152864894e+00
 3  1  3     9.4621910852e+00
 3  2  1     6.0152864894e+00
 3  2  2     3.3636487165e+00
 3  2  3     5.4629985739e+00
 3  3  1     9.6637027719e+00
 3  3  2     5.5793414005e+00
 3  3  3     9.7586578336e+00

   12
0.0000000000e+00 0.0000000000e+00 0.0000000000e+00
-1.5919200460e+00 2.7572864020e+00 0.0000000000e+00
     1      1      1
 1  1  1    -2.5481096089e-01
 1  1  2    -1.3578989376e+00
 1  1  3     0.0000000000e+00
 1  2  1    -2.1829867969e-01
 1  2  2     3.2304405095e+00
 1  2  3     0.0000000000e+00
 1  3  1     0.0000000000e+00
 1  3  2     0.0000000000e+00
 1  3  3     1.5854097664e+00
 2  1  1    -2.1829867969e-01
 2  1  2     3.2304405095e+00
 2  1  3     0.0000000000e+00
 2  2  1    -2.7204887013e-01
 2  2  2    -6.0727948060e+00
 2  2  3     0.0000000000e+00
 2  3  1     0.0000000000e+00
 2  3  2     0.0000000000e+00
 2  3  3    -7.9136642444e-02
 3  1  1     0.0000000000e+00
 3  1  2     0.0000000000e+00
 3  1  3     1.5854097664e+00
 3  2  1     0.0000000000e+00
 3  2  2     0.0000000000e+00
 3  2  3    -7.9136642444e-02
 3  3  1     1.8668305545e+00
 3  3  2    -1.0470311202e+00
 3  3  3     0.0000000000e+00

   13
0.0000000000e+00 0.0000000000e+00 0.0000000000e+00
-1.5919200460e+00 2.7572864020e+00 0.0000000000e+00
     1      1      2
 1  1  1     1.1818625565e-09
 1  1  2    -3.5172928906e+00
 1  1  3    -2.1466121276e+00
 1  2  1    -1.5000886199e+00
 1  2  2     6.7676406294e-10
 1  2  3     2.3218730528e-09
 1  3  1     1.0927855971e-01
 1  3  2     2.4992742148e-09
 1  3  3     1.9812953588e-09
 2  1  1    -1.5000886199e+00
 2  1  2     6.7676381756e-10
 2  1  3     2.3218729247e-09
 2  2  1     6.7676409392e-10
 2  2  2    -3.7320640007e+00
 2  2  3    -1.2804138541e+01
 2  3  1     2.4992740479e-09
 2  3  2    -1.3782430545e+01
 2  3  3    -1.0925997148e+01
 3  1  1     1.0927855971e-01
 3  1  2     2.4992742148e-09
 3  1  3     1.9812948336e-09
 3  2  1     2.4992740479e-09
 3  2  2    -1.3782430545e+01
 3  2  3    -1.0925997148e+01
 3  3  1     2.0234895071e-09
 3  3  2    -1.1158682801e+01
 3  3  3    -9.7586578336e+00

   14
0.0000000000e+00 0.0000000000e+00 0.0000000000e+00
-1.5919200460e+00 2.7572864020e+00 0.0000000000e+00
     1      1      3
 1  1  1     1.1818625565e-09
 1  1  2    -3.5172928906e+00
 1  1  3     2.1466121276e+00
 1  2  1    -1.5000886199e+00
 1  2  2     6.7676406294e-10
 1  2  3    -2.3218730528e-09
 1  3  1    -1.0927855971e-01
 1  3  2    -2.4992742148e-09
 1  3  3     1.9812953588e-09
 2  1  1    -1.5000886199e+00
 2  1  2     6.7676381756e-10
 2  1  3    -2.3218729247e-09
 2  2  1     6.7676409392e-10
 2  2  2    -3.7320640007e+00
 2  2  3     1.2804138541e+01
 2  3  1    -2.4992740479e-09
 2  3  2     1.3782430545e+01
 2  3  3    -1.0925997148e+01
 3  1  1    -1.0927855971e-01
 3  1  2    -2.4992742148e-09
 3  1  3     1.9812948336e-09
 3  2  1    -2.4992740479e-09
 3  2  2     1.3782430545e+01
 3  2  3    -1.0925997148e+01
 3  3  1     2.0234895071e-09
 3  3  2    -1.1158682801e+01
 3  3  3     9.7586578336e+00

   15
0.0000000000e+00 0.0000000000e+00 0.0000000000e+00
1.5919200450e+00 2.7572864020e+00 0.0000000000e+00
     1      1      1
 1  1  1     2.5481096154e-01
 1  1  2    -1.3578989353e+00
 1  1  3     0.0000000000e+00
 1  2  1    -2.1829867861e-01
 1  2  2    -3.2304405073e+00
 1  2  3     0.0000000000e+00
 1  3  1     0.0000000000e+00
 1  3  2     0.0000000000e+00
 1  3  3    -1.5854097663e+00
 2  1  1    -2.1829867861e-01
 2  1  2    -3.2304405073e+00
 2  1  3     0.0000000000e+00
 2  2  1     2.7204887233e-01
 2  2  2    -6.0727948060e+00
 2  2  3     0.0000000000e+00
 2  3  1     0.0000000000e+00
 2  3  2     0.0000000000e+00
 2  3  3    -7.9136642444e-02
 3  1  1     0.0000000000e+00
 3  1  2     0.0000000000e+00
 3  1  3    -1.5854097663e+00
 3  2  1     0.0000000000e+00
 3  2  2     0.0000000000e+00
 3  2  3    -7.9136642444e-02
 3  3  1    -1.8668305541e+00
 3  3  2    -1.0470311202e+00
 3  3  3     0.0000000000e+00

   16
0.0000000000e+00 0.0000000000e+00 0.0000000000e+00
1.5919200450e+00 2.7572864020e+00 0.0000000000e+00
     1      1      2
 1  1  1     2.1933692673e-01
 1  1  2    -2.7199514379e-01
 1  1  3    -2.1148430327e-01
 1  2  1    -1.7910200260e-01
 1  2  2     1.2674418898e-01
 1  2  3    -5.5571023133e-02
 1  3  1    -3.5373431765e-01
 1  3  2    -4.7704683248e-02
 1  3  3     3.3777794322e-02
 2  1  1    -1.7910200260e-01
 2  1  2     1.2674418898e-01
 2  1  3    -5.5571023133e-02
 2  2  1    -3.4151451292e-02
 2  2  2     3.7891202834e-01
 2  2  3    -1.4731641313e-01
 2  3  1    -4.7704683248e-02
 2  3  2    -2.9864969456e-01
 2  3  3     1.9501618658e-02
 3  1  1    -3.5373431765e-01
 3  1  2    -4.7704683248e-02
 3  1  3     3.3777794322e-02
 3  2  1    -4.7704683248e-02
 3  2  2    -2.9864969456e-01
 3  2  3     1.9501618658e-02
 3  3  1    -8.1289742558e-02
 3  3  2    -4.6932654780e-02
 3  3  3    -2.6729508312e-02

   17
0.0000000000e+00 0.0000000000e+00 0.0000000000e+00
1.5919200450e+00 2.7572864020e+00 0.0000000000e+00
     1      1      3
 1  1  1     2.1933692673e-01
 1  1  2    -2.7199514379e-01
 1  1  3     2.1148430327e-01
 1  2  1    -1.7910200260e-01
 1  2  2     1.2674418898e-01
 1  2  3     5.5571023133e-02
 1  3  1     3.5373431765e-01
 1  3  2     4.7704683248e-02
 1  3  3     3.3777794322e-02
 2  1  1    -1.7910200260e-01
 2  1  2     1.2674418898e-01
 2  1  3     5.5571023133e-02
 2  2  1    -3.4151451292e-02
 2  2  2     3.7891202834e-01
 2  2  3     1.4731641313e-01
 2  3  1     4.7704683248e-02
 2  3  2     2.9864969456e-01
 2  3  3     1.9501618658e-02
 3  1  1     3.5373431765e-01
 3  1  2     4.7704683248e-02
 3  1  3     3.3777794322e-02
 3  2  1     4.7704683248e-02
 3  2  2     2.9864969456e-01
 3  2  3     1.9501618658e-02
 3  3  1    -8.1289742558e-02
 3  3  2    -4.6932654780e-02
 3  3  3     2.6729508312e-02

   18
0.0000000000e+00 0.0000000000e+00 0.0000000000e+00
4.7757601360e+00 2.7572864020e+00 0.0000000000e+00
     1      1      1
 1  1  1     5.7694714674e-02
 1  1  2     1.1067151362e-01
 1  1  3     0.0000000000e+00
 1  2  1    -4.8902782715e-02
 1  2  2    -7.2898691395e-02
 1  2  3     0.0000000000e+00
 1  3  1     0.0000000000e+00
 1  3  2     0.0000000000e+00
 1  3  3    -6.3531320871e-02
 2  1  1    -4.8902782715e-02
 2  1  2    -7.2898691395e-02
 2  1  3     0.0000000000e+00
 2  2  1     2.0349209751e-01
 2  2  2     4.0124762734e-02
 2  2  3     0.0000000000e+00
 2  3  1     0.0000000000e+00
 2  3  2     0.0000000000e+00
 2  3  3    -3.6679825232e-02
 3  1  1     0.0000000000e+00
 3  1  2     0.0000000000e+00
 3  1  3    -6.3531320871e-02
 3  2  1     0.0000000000e+00
 3  2  2     0.0000000000e+00
 3  2  3    -3.6679825232e-02
 3  3  1    -1.8349349383e-02
 3  3  2    -1.0594001813e-02
 3  3  3     0.0000000000e+00

   19
0.0000000000e+00 0.0000000000e+00 0.0000000000e+00
-4.7757601370e+00 2.7572864020e+00 0.0000000000e+00
     1      1      1
 1  1  1    -5.7694714678e-02
 1  1  2     1.1067151357e-01
 1  1  3     0.0000000000e+00
 1  2  1    -4.8902782667e-02
 1  2  2     7.2898691381e-02
 1  2  3     0.0000000000e+00
 1  3  1     0.0000000000e+00
 1  3  2     0.0000000000e+00
 1  3  3     6.3531320885e-02
 2  1  1    -4.8902782667e-02
 2  1  2     7.2898691381e-02
 2  1  3     0.0000000000e+00
 2  2  1    -2.0349209753e-01
 2  2  2     4.0124762734e-02
 2  2  3     0.0000000000e+00
 2  3  1     0.0000000000e+00
 2  3  2     0.0000000000e+00
 2  3  3    -3.6679825232e-02
 3  1  1     0.0000000000e+00
 3  1  2     0.0000000000e+00
 3  1  3     6.3531320885e-02
 3  2  1     0.0000000000e+00
 3  2  2     0.0000000000e+00
 3  2  3    -3.6679825232e-02
 3  3  1     1.8349349387e-02
 3  3  2    -1.0594001813e-02
 3  3  3     0.0000000000e+00

   20
0.0000000000e+00 0.0000000000e+00 0.0000000000e+00
-4.7757601370e+00 2.7572864020e+00 0.0000000000e+00
     1      1      2
 1  1  1    -2.1933692650e-01
 1  1  2    -2.7199514370e-01
 1  1  3    -2.1148430331e-01
 1  2  1    -1.7910200256e-01
 1  2  2    -1.2674418911e-01
 1  2  3     5.5571023186e-02
 1  3  1    -3.5373431769e-01
 1  3  2     4.7704683356e-02
 1  3  3    -3.3777794329e-02
 2  1  1    -1.7910200256e-01
 2  1  2    -1.2674418911e-01
 2  1  3     5.5571023186e-02
 2  2  1     3.4151451155e-02
 2  2  2     3.7891202834e-01
 2  2  3    -1.4731641313e-01
 2  3  1     4.7704683356e-02
 2  3  2    -2.9864969456e-01
 2  3  3     1.9501618658e-02
 3  1  1    -3.5373431769e-01
 3  1  2     4.7704683356e-02
 3  1  3    -3.3777794329e-02
 3  2  1     4.7704683356e-02
 3  2  2    -2.9864969456e-01
 3  2  3     1.9501618658e-02
 3  3  1     8.1289742575e-02
 3  3  2    -4.6932654780e-02
 3  3  3    -2.6729508312e-02

   21
0.0000000000e+00 0.0000000000e+00 0.0000000000e+00
-4.7757601370e+00 2.7572864020e+00 0.0000000000e+00
     1      1      3
 1  1  1    -2.1933692650e-01
 1  1  2    -2.7199514370e-01
 1  1  3     2.1148430331e-01
 1  2  1    -1.7910200256e-01
 1  2  2    -1.2674418911e-01
 1  2  3    -5.5571023186e-02
 1  3  1     3.5373431769e-01
 1  3  2    -4.7704683356e-02
 1  3  3    -3.3777794329e-02
 2  1  1    -1.7910200256e-01
 2  1  2    -1.2674418911e-01
 2  1  3    -5.5571023186e-02
 2  2  1     3.4151451155e-02
 2  2  2     3.7891202834e-01
 2  2  3     1.4731641313e-01
 2  3  1    -4.7704683356e-02
 2  3  2     2.9864969456e-01
 2  3  3     1.9501618658e-02
 3  1  1     3.5373431769e-01
 3  1  2    -4.7704683356e-02
 3  1  3    -3.3777794329e-02
 3  2  1    -4.7704683356e-02
 3  2  2     2.9864969456e-01
 3  2  3     1.9501618658e-02
 3  3  1     8.1289742575e-02
 3  3  2    -4.6932654780e-02
 3  3  3     2.6729508312e-02

   22
0.0000000000e+00 0.0000000000e+00 0.0000000000e+00
-3.1838400920e+00 5.5145728040e+00 0.0000000000e+00
     1      1      2
 1  1  1    -4.4962259950e-02
 1  1  2     3.2346386983e-02
 1  1  3     1.6296173356e-01
 1  2  1    -4.4297112254e-02
 1  2  2    -2.3727356250e-03
 1  2  3     4.1724912366e-04
 1  3  1    -6.9559305584e-02
 1  3  2     7.8582427245e-02
 1  3  3    -1.4962000553e-01
 2  1  1    -4.4297112254e-02
 2  1  2    -2.3727356250e-03
 2  1  3     4.1724912366e-04
 2  2  1     1.0122420570e-01
 2  2  2     3.2046112577e-02
 2  2  3     3.6135340868e-02
 2  3  1    -6.7356775820e-02
 2  3  2    -1.0649471553e-01
 2  3  3    -9.9203297027e-02
 3  1  1    -6.9559305584e-02
 3  1  2     7.8582427245e-02
 3  1  3    -1.4962000553e-01
 3  2  1    -6.7356775820e-02
 3  2  2    -1.0649471553e-01
 3  2  3    -9.9203297027e-02
 3  3  1    -1.4951006539e-01
 3  3  2     1.0949987219e-01
 3  3  3    -1.5342054511e-01

   23
0.0000000000e+00 0.0000000000e+00 0.0000000000e+00
-3.1838400920e+00 5.5145728040e+00 0.0000000000e+00
     1      1      3
 1  1  1    -4.4962259950e-02
 1  1  2     3.2346386983e-02
 1  1  3    -1.6296173356e-01
 1  2  1    -4.4297112254e-02
 1  2  2    -2.3727356250e-03
 1  2  3    -4.1724912366e-04
 1  3  1     6.9559305584e-02
 1  3  2    -7.8582427245e-02
 1  3  3    -1.4962000553e-01
 2  1  1    -4.4297112254e-02
 2  1  2    -2.3727356250e-03
 2  1  3    -4.1724912366e-04
 2  2  1     1.0122420570e-01
 2  2  2     3.2046112577e-02
 2  2  3    -3.6135340868e-02
 2  3  1     6.7356775820e-02
 2  3  2     1.0649471553e-01
 2  3  3    -9.9203297027e-02
 3  1  1     6.9559305584e-02
 3  1  2    -7.8582427245e-02
 3  1  3    -1.4962000553e-01
 3  2  1     6.7356775820e-02
 3  2  2     1.0649471553e-01
 3  2  3    -9.9203297027e-02
 3  3  1    -1.4951006539e-01
 3  3  2     1.0949987219e-01
 3  3  3     1.5342054511e-01

   24
0.0000000000e+00 0.0000000000e+00 0.0000000000e+00
-1.0000006379e-09 5.5145728040e+00 0.0000000000e+00
     1      1      1
 1  1  1     9.3316820431e-11
 1  1  2    -1.2152586251e-01
 1  1  3     0.0000000000e+00
 1  2  1    -1.9653831132e-01
 1  2  2    -1.3154940885e-11
 1  2  3     0.0000000000e+00
 1  3  1     0.0000000000e+00
 1  3  2     0.0000000000e+00
 1  3  3    -7.3285759064e-12
 2  1  1    -1.9653831132e-01
 2  1  2    -1.3154940885e-11
 2  1  3     0.0000000000e+00
 2  2  1    -1.3154940885e-11
 2  2  2     7.2543891234e-02
 2  2  3     0.0000000000e+00
 2  3  1     0.0000000000e+00
 2  3  2     0.0000000000e+00
 2  3  3     4.0413972065e-02
 3  1  1     0.0000000000e+00
 3  1  2     0.0000000000e+00
 3  1  3    -7.3285759064e-12
 3  2  1     0.0000000000e+00
 3  2  2     0.0000000000e+00
 3  2  3     4.0413972065e-02
 3  3  1     1.6754616975e-11
 3  3  2    -9.2394570383e-02
 3  3  3     0.0000000000e+00

   25
0.0000000000e+00 0.0000000000e+00 0.0000000000e+00
-1.0000000827e-09 5.5145728040e+00 0.0000000000e+00
     1      1      2
 1  1  1     4.4962259970e-02
 1  1  2     3.2346386981e-02
 1  1  3     1.6296173356e-01
 1  2  1    -4.4297112218e-02
 1  2  2     2.3727356134e-03
 1  2  3    -4.1724913677e-04
 1  3  1    -6.9559305580e-02
 1  3  2    -7.8582427207e-02
 1  3  3     1.4962000557e-01
 2  1  1    -4.4297112218e-02
 2  1  2     2.3727356134e-03
 2  1  3    -4.1724913677e-04
 2  2  1    -1.0122420571e-01
 2  2  2     3.2046112577e-02
 2  2  3     3.6135340868e-02
 2  3  1     6.7356775859e-02
 2  3  2    -1.0649471553e-01
 2  3  3    -9.9203297027e-02
 3  1  1    -6.9559305580e-02
 3  1  2    -7.8582427207e-02
 3  1  3     1.4962000557e-01
 3  2  1     6.7356775859e-02
 3  2  2    -1.0649471553e-01
 3  2  3    -9.9203297027e-02
 3  3  1     1.4951006535e-01
 3  3  2     1.0949987219e-01
 3  3  3    -1.5342054511e-01

   26
0.0000000000e+00 0.0000000000e+00 0.0000000000e+00
-1.0000000827e-09 5.5145728040e+00 0.0000000000e+00
     1      1      3
 1  1  1     4.4962259970e-02
 1  1  2     3.2346386981e-02
 1  1  3    -1.6296173356e-01
 1  2  1    -4.4297112218e-02
 1  2  2     2.3727356134e-03
 1  2  3     4.1724913677e-04
 1  3  1     6.9559305580e-02
 1  3  2     7.8582427207e-02
 1  3  3     1.4962000557e-01
 2  1  1    -4.4297112218e-02
 2  1  2     2.3727356134e-03
 2  1  3     4.1724913677e-04
 2  2  1    -1.0122420571e-01
 2  2  2     3.2046112577e-02
 2  2  3    -3.6135340868e-02
 2  3  1    -6.7356775859e-02
 2  3  2     1.0649471553e-01
 2  3  3    -9.9203297027e-02
 3  1  1     6.9559305580e-02
 3  1  2     7.8582427207e-02
 3  1  3     1.4962000557e-01
 3  2  1    -6.7356775859e-02
 3  2  2     1.0649471553e-01
 3  2  3    -9.9203297027e-02
 3  3  1     1.4951006535e-01
 3  3  2     1.0949987219e-01
 3  3  3     1.5342054511e-01

   27
0.0000000000e+00 0.0000000000e+00 0.0000000000e+00
1.0000000827e-09 -5.5145728040e+00 0.0000000000e+00
     1      1      1
 1  1  1     1.5788009922e-11
 1  1  2    -2.4178713804e-01
 1  1  3     0.0000000000e+00
 1  2  1     7.7361454524e-02
 1  2  2     1.0844974286e-11
 1  2  3     0.0000000000e+00
 1  3  1     0.0000000000e+00
 1  3  2     0.0000000000e+00
 1  3  3    -1.3302871947e-11
 2  1  1     7.7361454524e-02
 2  1  2     1.0844966258e-11
 2  1  3     0.0000000000e+00
 2  2  1     1.0844995415e-11
 2  2  2    -5.9805414587e-02
 2  2  3     0.0000000000e+00
 2  3  1     0.0000000000e+00
 2  3  2     0.0000000000e+00
 2  3  3     7.3359650465e-02
 3  1  1     0.0000000000e+00
 3  1  2     0.0000000000e+00
 3  1  3    -1.3302871947e-11
 3  2  1     0.0000000000e+00
 3  2  2     0.0000000000e+00
 3  2  3     7.3359650465e-02
 3  3  1    -3.8421843243e-12
 3  3  2     2.1188003626e-02
 3  3  3     0.0000000000e+00

   28
0.0000000000e+00 0.0000000000e+00 0.0000000000e+00
1.5919200460e+00 -2.7572864020e+00 0.0000000000e+00
     1      1      1
 1  1  1    -2.0439550874e+00
 1  1  2     6.5262051946e-01
 1  1  3     0.0000000000e+00
 1  2  1     3.1160651688e+00
 1  2  2    -1.9164769112e+00
 1  2  3     0.0000000000e+00
 1  3  1     0.0000000000e+00
 1  3  2     0.0000000000e+00
 1  3  3     7.2417054024e-01
 2  1  1     3.1160651688e+00
 2  1  2    -1.9164769112e+00
 2  1  3     0.0000000000e+00
 2  2  1    -4.6546443746e+00
 2  2  2     2.6064523528e+00
 2  2  3     0.0000000000e+00
 2  3  1     0.0000000000e+00
 2  3  2     0.0000000000e+00
 2  3  3     1.4125734551e+00
 3  1  1     0.0000000000e+00
 3  1  2     0.0000000000e+00
 3  1  3     7.2417054024e-01
 3  2  1     0.0000000000e+00
 3  2  2     0.0000000000e+00
 3  2  3     1.4125734551e+00
 3  3  1     2.6659728673e-02
 3  3  2     2.1402382456e+00
 3  3  3     0.0000000000e+00

   29
0.0000000000e+00 0.0000000000e+00 0.0000000000e+00
1.5919200460e+00 -2.7572864020e+00 0.0000000000e+00
     1      1      2
 1  1  1     3.9195789519e-02
 1  1  2     7.7564352735e-03
 1  1  3     6.8203287336e-02
 1  2  1    -4.3639398031e-02
 1  2  2    -7.3472964333e-02
 1  2  3     5.5126063562e-02
 1  3  1    -9.2400013319e-02
 1  3  2    -5.4169687060e-02
 1  3  3    -1.6072257807e-01
 2  1  1    -4.3639398031e-02
 2  1  2    -7.3472964333e-02
 2  1  3     5.5126063562e-02
 2  2  1     4.4700723728e-02
 2  2  2     8.7715892142e-03
 2  2  3     1.3089378718e-01
 2  3  1     9.1769516005e-02
 2  3  2    -8.3654007769e-02
 2  3  3    -7.9973077280e-02
 3  1  1    -9.2400013319e-02
 3  1  2    -5.4169687060e-02
 3  1  3    -1.6072257807e-01
 3  2  1     9.1769516005e-02
 3  2  2    -8.3654007769e-02
 3  2  3    -7.9973077280e-02
 3  3  1     2.0074638320e-02
 3  3  2    -1.8422945090e-01
 3  3  3    -1.5342054511e-01

   30
0.0000000000e+00 0.0000000000e+00 0.0000000000e+00
1.5919200460e+00 -2.7572864020e+00 0.0000000000e+00
     1      1      3
 1  1  1     3.9195789519e-02
 1  1  2     7.7564352735e-03
 1  1  3    -6.8203287336e-02
 1  2  1    -4.3639398031e-02
 1  2  2    -7.3472964333e-02
 1  2  3    -5.5126063562e-02
 1  3  1     9.2400013319e-02
 1  3  2     5.4169687060e-02
 1  3  3    -1.6072257807e-01
 2  1  1    -4.3639398031e-02
 2  1  2    -7.3472964333e-02
 2  1  3    -5.5126063562e-02
 2  2  1     4.4700723728e-02
 2  2  2     8.7715892142e-03
 2  2  3    -1.3089378718e-01
 2  3  1    -9.1769516005e-02
 2  3  2     8.3654007769e-02
 2  3  3    -7.9973077280e-02
 3  1  1     9.2400013319e-02
 3  1  2     5.4169687060e-02
 3  1  3    -1.6072257807e-01
 3  2  1    -9.1769516005e-02
 3  2  2     8.3654007769e-02
 3  2  3    -7.9973077280e-02
 3  3  1     2.0074638320e-02
 3  3  2    -1.8422945090e-01
 3  3  3     1.5342054511e-01

   31
0.0000000000e+00 0.0000000000e+00 0.0000000000e+00
4.7757601370e+00 -2.7572864020e+00 0.0000000000e+00
     1      1      1
 1  1  1    -6.4296066670e-02
 1  1  2    -1.5941695984e-01
 1  1  3     0.0000000000e+00
 1  2  1    -1.2191073545e-01
 1  2  2    -4.3086251075e-02
 1  2  3     0.0000000000e+00
 1  3  1     0.0000000000e+00
 1  3  2     0.0000000000e+00
 1  3  3     3.4999526460e-02
 2  1  1    -1.2191073545e-01
 2  1  2    -4.3086251075e-02
 2  1  3     0.0000000000e+00
 2  2  1     2.1876435231e-02
 2  2  2     1.8390794575e-01
 2  2  3     0.0000000000e+00
 2  3  1     0.0000000000e+00
 2  3  2     0.0000000000e+00
 2  3  3    -2.0206986033e-02
 3  1  1     0.0000000000e+00
 3  1  2     0.0000000000e+00
 3  1  3     3.4999526460e-02
 3  2  1     0.0000000000e+00
 3  2  2     0.0000000000e+00
 3  2  3    -2.0206986033e-02
 3  3  1    -8.0016045085e-02
 3  3  2     4.6197285191e-02
 3  3  3     0.0000000000e+00

   32
0.0000000000e+00 0.0000000000e+00 0.0000000000e+00
-4.7757601360e+00 -2.7572864020e+00 0.0000000000e+00
     1      1      1
 1  1  1     6.4296066816e-02
 1  1  2    -1.5941695987e-01
 1  1  3     0.0000000000e+00
 1  2  1    -1.2191073546e-01
 1  2  2     4.3086251008e-02
 1  2  3     0.0000000000e+00
 1  3  1     0.0000000000e+00
 1  3  2     0.0000000000e+00
 1  3  3    -3.4999526452e-02
 2  1  1    -1.2191073546e-01
 2  1  2     4.3086251008e-02
 2  1  3     0.0000000000e+00
 2  2  1    -2.1876435298e-02
 2  2  2     1.8390794575e-01
 2  2  3     0.0000000000e+00
 2  3  1     0.0000000000e+00
 2  3  2     0.0000000000e+00
 2  3  3    -2.0206986033e-02
 3  1  1     0.0000000000e+00
 3  1  2     0.0000000000e+00
 3  1  3    -3.4999526452e-02
 3  2  1     0.0000000000e+00
 3  2  2     0.0000000000e+00