   0.32869E+01   0.12898E-02   0.12898E-02   0.16861E-02   0.16861E-02
   0.65738E+01   0.17313E-02   0.17313E-02   0.23098E-02   0.23098E-02
   0.98607E+01   0.20622E-02   0.20622E-02   0.28183E-02   0.28183E-02
   0.13148E+02   0.69055E-02   0.69055E-02   0.93890E-02   0.93890E-02
   0.16435E+02   0.55765E-02   0.55765E-02   0.79673E-02   0.79673E-02
   0.19721E+02   0.50928E-02   0.50928E-02   0.75856E-02   0.75856E-02
   0.23008E+02   0.50337E-02   0.50337E-02   0.78217E-02   0.78217E-02
   0.26295E+02   0.50670E-02   0.50670E-02   0.82845E-02   0.82845E-02
   0.29582E+02   0.50245E-02   0.50245E-02   0.85888E-02   0.85888E-02
   0.32869E+02   0.52432E-02   0.52432E-02   0.94213E-02   0.94213E-02
   0.36156E+02   0.50303E-02   0.50303E-02   0.97011E-02   0.97011E-02
   0.39443E+02   0.53653E-02   0.53653E-02   0.11048E-01   0.11048E-01
   0.42730E+02   0.54820E-02   0.54820E-02   0.12095E-01   0.12095E-01
   0.46017E+02   0.53390E-02   0.53390E-02   0.12908E-01   0.12908E-01
   0.49304E+02   0.55963E-02   0.55963E-02   0.15325E-01   0.15325E-01
   0.52591E+02   0.55918E-02   0.55918E-02   0.17156E-01   0.17156E-01
   0.55878E+02   0.58895E-02   0.58895E-02   0.21466E-01   0.21466E-01
   0.59164E+02   0.61899E-02   0.61899E-02   0.29991E-01   0.29991E-01
   0.62451E+02   0.64696E-02   0.64696E-02   0.53347E-01   0.53347E-01
   0.65738E+02   0.27046E-02   0.27046E-02   0.36278E-02   0.36278E-02
   0.69025E+02   0.33755E-02   0.33755E-02   0.45383E-02   0.45383E-02
   0.72312E+02   0.43691E-02   0.43691E-02   0.58989E-02   0.58989E-02
   0.75599E+02   0.53117E-02   0.53117E-02   0.71866E-02   0.71866E-02
   0.78886E+02   0.39290E-02   0.39290E-02   0.52974E-02   0.52974E-02
   0.82173E+02   0.36214E-02   0.36214E-02   0.48832E-02   0.48832E-02
   0.85460E+02   0.34030E-02   0.34030E-02   0.46047E-02   0.46047E-02
   0.88747E+02   0.32585E-02   0.32585E-02   0.44282E-02   0.44282E-02
   0.92034E+02   0.38833E-02   0.38833E-02   0.65794E-02   0.65794E-02
   0.95321E+02   0.37992E-02   0.37992E-02   0.64940E-02   0.64940E-02
   0.98607E+02   0.37932E-02   0.37932E-02   0.63876E-02   0.63876E-02
   0.10189E+03   0.38904E-02   0.38904E-02   0.67030E-02   0.67030E-02
   0.10518E+03   0.37821E-02   0.37821E-02   0.65194E-02   0.65194E-02
   0.10847E+03   0.38834E-02   0.38834E-02   0.68801E-02   0.68801E-02
   0.11176E+03   0.40012E-02   0.40012E-02   0.73536E-02   0.73536E-02
   0.11504E+03   0.14160E-01   0.14160E-01   0.71275E-02   0.71275E-02
   0.11833E+03   0.30862E-01   0.30862E-01   0.93118E-02   0.93118E-02
   0.12162E+03   0.44048E-01   0.44048E-01   0.12861E-01   0.12861E-01
   0.12490E+03   0.29373E-01   0.29373E-01   0.12836E-01   0.12836E-01
   0.12819E+03   0.24749E-01   0.24749E-01   0.13870E-01   0.13870E-01
   0.13148E+03   0.21316E-01   0.21316E-01   0.14326E-01   0.14326E-01
   0.13476E+03   0.19188E-01   0.19188E-01   0.14992E-01   0.14992E-01
   0.13805E+03   0.18540E-01   0.18540E-01   0.16279E-01   0.16279E-01
   0.14134E+03   0.18748E-01   0.18748E-01   0.18044E-01   0.18044E-01
   0.14462E+03   0.17365E-01   0.17365E-01   0.18880E-01   0.18880E-01
   0.14791E+03   0.17425E-01   0.17425E-01   0.21213E-01   0.21213E-01
   0.15120E+03   0.15276E-01   0.15276E-01   0.21417E-01   0.21417E-01
   0.15449E+03   0.12618E-01   0.12618E-01   0.17991E-01   0.17991E-01
   0.15777E+03   0.53308E-02   0.53308E-02   0.11898E-01   0.11898E-01
   0.16106E+03   0.47931E-02   0.47931E-02   0.10586E-01   0.10586E-01
   0.16435E+03   0.21297E-02   0.21297E-02   0.54944E-02   0.54944E-02
   0.16763E+03   0.21943E-02   0.21943E-02   0.58795E-02   0.58795E-02
   0.17092E+03   0.23087E-02   0.23087E-02   0.64756E-02   0.64756E-02
   0.17421E+03   0.23022E-02   0.23022E-02   0.68464E-02   0.68464E-02
   0.17749E+03   0.24533E-02   0.24533E-02   0.78467E-02   0.78467E-02
   0.18078E+03   0.26077E-02   0.26077E-02   0.11480E-01   0.11480E-01
   0.18407E+03   0.29102E-02   0.29102E-02   0.15435E-01   0.15435E-01
   0.18735E+03   0.37220E-02   0.37220E-02   0.27340E-01   0.27340E-01
   0.19064E+03   0.18668E-02   0.18668E-02   0.10942E-01   0.10942E-01
   0.19393E+03   0.15637E-02   0.15637E-02   0.10761E-01   0.10761E-01
   0.19721E+03   0.13285E-02   0.13285E-02   0.12452E-01   0.12452E-01
   0.20050E+03   0.72554E-02   0.72554E-02   0.42627E-01   0.42627E-01
   0.20379E+03   0.30830E-02   0.30830E-02   0.22095E-01   0.22095E-01
   0.20708E+03   0.32490E-03   0.32490E-03   0.35542E-02   0.35542E-02
   0.21036E+03   0.00000E+00   0.00000E+00   0.00000E+00   0.00000E+00
   0.21365E+03   0.00000E+00   0.00000E+00   0.00000E+00   0.00000E+00
   0.21694E+03   0.00000E+00   0.00000E+00   0.00000E+00   0.00000E+00
   0.22022E+03   0.00000E+00   0.00000E+00   0.00000E+00   0.00000E+00
   0.22351E+03   0.00000E+00   0.00000E+00   0.00000E+00   0.00000E+00
   0.22680E+03   0.12079E-01   0.12079E-01   0.32949E-02   0.32949E-02
   0.23008E+03   0.18733E-01   0.18733E-01   0.77996E-02   0.77996E-02
   0.23337E+03   0.14473E-01   0.14473E-01   0.61670E-02   0.61670E-02
   0.23666E+03   0.14486E-01   0.14486E-01   0.74891E-02   0.74891E-02
   0.23994E+03   0.29395E-01   0.29395E-01   0.21985E-01   0.21985E-01
   0.24323E+03   0.25628E-01   0.25628E-01   0.18110E-01   0.18110E-01
   0.24652E+03   0.17475E-01   0.17475E-01   0.11847E-01   0.11847E-01
   0.24981E+03   0.12975E-01   0.12975E-01   0.88428E-02   0.88428E-02
   0.25309E+03   0.11412E-01   0.11412E-01   0.78015E-02   0.78015E-02
   0.25638E+03   0.58091E-01   0.58091E-01   0.20293E-01   0.20293E-01
   0.25967E+03   0.30676E-01   0.30676E-01   0.11847E-01   0.11847E-01
   0.26295E+03   0.28078E-01   0.28078E-01   0.11383E-01   0.11383E-01
   0.26624E+03   0.17627E-01   0.17627E-01   0.47336E-02   0.47336E-02
   0.26953E+03   0.20004E-01   0.20004E-01   0.52888E-02   0.52888E-02
   0.27281E+03   0.88372E-02   0.88372E-02   0.62318E-03   0.62318E-03
   0.27610E+03   0.10785E-01   0.10785E-01   0.87012E-03   0.87012E-03
   0.27939E+03   0.21737E-01   0.21737E-01   0.13534E-02   0.13534E-02
   0.28267E+03   0.12070E-01   0.12070E-01   0.17903E-02   0.17903E-02
   0.28596E+03   0.12368E-01   0.12368E-01   0.25110E-02   0.25110E-02
   0.28925E+03   0.13578E-01   0.13578E-01   0.35226E-02   0.35226E-02
   0.29254E+03   0.13662E-01   0.13662E-01   0.42451E-02   0.42451E-02
   0.29582E+03   0.15163E-01   0.15163E-01   0.54364E-02   0.54364E-02
   0.29911E+03   0.00000E+00   0.00000E+00   0.00000E+00   0.00000E+00
   0.30240E+03   0.00000E+00   0.00000E+00   0.00000E+00   0.00000E+00
   0.30568E+03   0.00000E+00   0.00000E+00   0.00000E+00   0.00000E+00
   0.30897E+03   0.00000E+00   0.00000E+00   0.00000E+00   0.00000E+00
   0.31226E+03   0.00000E+00   0.00000E+00   0.00000E+00   0.00000E+00
   0.31554E+03   0.00000E+00   0.00000E+00   0.00000E+00   0.00000E+00
   0.31883E+03   0.00000E+00   0.00000E+00   0.00000E+00   0.00000E+00
   0.32212E+03   0.00000E+00   0.00000E+00   0.00000E+00   0.00000E+00
   0.32540E+03   0.00000E+00   0.00000E+00   0.00000E+00   0.00000E+00
   0.32869E+03   0.00000E+00   0.00000E+00   0.00000E+00   0.00000E+00
