 1824

    1
0.0000000000e+00 0.0000000000e+00 0.0000000000e+00
0.0000000000e+00 0.0000000000e+00 0.0000000000e+00
     1      1      1
 1  1  1     0.0000000000e+00
 1  1  2     0.0000000000e+00
 1  1  3     0.0000000000e+00
 1  2  1     0.0000000000e+00
 1  2  2     0.0000000000e+00
 1  2  3     0.0000000000e+00
 1  3  1     0.0000000000e+00
 1  3  2     0.0000000000e+00
 1  3  3     0.0000000000e+00
 2  1  1     0.0000000000e+00
 2  1  2     0.0000000000e+00
 2  1  3     0.0000000000e+00
 2  2  1     0.0000000000e+00
 2  2  2     0.0000000000e+00
 2  2  3     0.0000000000e+00
 2  3  1     0.0000000000e+00
 2  3  2     0.0000000000e+00
 2  3  3     0.0000000000e+00
 3  1  1     0.0000000000e+00
 3  1  2     0.0000000000e+00
 3  1  3     0.0000000000e+00
 3  2  1     0.0000000000e+00
 3  2  2     0.0000000000e+00
 3  2  3     0.0000000000e+00
 3  3  1     0.0000000000e+00
 3  3  2     0.0000000000e+00
 3  3  3     0.0000000000e+00

    2
0.0000000000e+00 0.0000000000e+00 0.0000000000e+00
0.0000000000e+00 0.0000000000e+00 0.0000000000e+00
     1      1      3
 1  1  1     0.0000000000e+00
 1  1  2     0.0000000000e+00
 1  1  3     2.6798577386e-03
 1  2  1     0.0000000000e+00
 1  2  2     0.0000000000e+00
 1  2  3     4.8585377068e-13
 1  3  1    -2.9924214036e-03
 1  3  2    -5.4252104559e-13
 1  3  3     0.0000000000e+00
 2  1  1     0.0000000000e+00
 2  1  2     0.0000000000e+00
 2  1  3     4.8585377068e-13
 2  2  1     0.0000000000e+00
 2  2  2     0.0000000000e+00
 2  2  3     2.6798577381e-03
 2  3  1    -5.4252104559e-13
 2  3  2    -2.9924214030e-03
 2  3  3     0.0000000000e+00
 3  1  1    -2.9924214036e-03
 3  1  2    -5.4252104559e-13
 3  1  3     0.0000000000e+00
 3  2  1    -5.4252104559e-13
 3  2  2    -2.9924214030e-03
 3  2  3     0.0000000000e+00
 3  3  1     0.0000000000e+00
 3  3  2     0.0000000000e+00
 3  3  3     5.4971773586e-03

    3
0.0000000000e+00 0.0000000000e+00 0.0000000000e+00
0.0000000000e+00 0.0000000000e+00 0.0000000000e+00
     1      1      4
 1  1  1     5.5744625042e-01
 1  1  2     6.5480895618e-01
 1  1  3    -1.0410345213e+01
 1  2  1     1.3381424342e+00
 1  2  2    -2.0870735103e-01
 1  2  3     5.5607295454e+00
 1  3  1    -1.0696651750e+01
 1  3  2     6.1011812891e+00
 1  3  3     1.0755484265e+01
 2  1  1     1.3381424342e+00
 2  1  2    -2.0870735103e-01
 2  1  3     5.5607295454e+00
 2  2  1     9.7486095094e-01
 2  2  2    -1.5394869310e+00
 2  2  3    -3.9893678130e+00
 2  3  1     6.1011812891e+00
 2  3  2    -3.6516144310e+00
 2  3  3    -6.2096817358e+00
 3  1  1    -1.0696651750e+01
 3  1  2     6.1011812891e+00
 3  1  3     1.0755484265e+01
 3  2  1     6.1011812891e+00
 3  2  2    -3.6516144310e+00
 3  2  3    -6.2096817358e+00
 3  3  1     1.0479191057e+01
 3  3  2    -6.0501637777e+00
 3  3  3    -1.0940156791e+01

    4
0.0000000000e+00 0.0000000000e+00 0.0000000000e+00
0.0000000000e+00 0.0000000000e+00 0.0000000000e+00
     1      1      6
 1  1  1     5.5744625042e-01
 1  1  2     6.5480895618e-01
 1  1  3     1.0410345213e+01
 1  2  1     1.3381424342e+00
 1  2  2    -2.0870735103e-01
 1  2  3    -5.5607295454e+00
 1  3  1     1.0696651750e+01
 1  3  2    -6.1011812891e+00
 1  3  3     1.0755484265e+01
 2  1  1     1.3381424342e+00
 2  1  2    -2.0870735103e-01
 2  1  3    -5.5607295454e+00
 2  2  1     9.7486095094e-01
 2  2  2    -1.5394869310e+00
 2  2  3     3.9893678130e+00
 2  3  1    -6.1011812891e+00
 2  3  2     3.6516144310e+00
 2  3  3    -6.2096817358e+00
 3  1  1     1.0696651750e+01
 3  1  2    -6.1011812891e+00
 3  1  3     1.0755484265e+01
 3  2  1    -6.1011812891e+00
 3  2  2     3.6516144310e+00
 3  2  3    -6.2096817358e+00
 3  3  1     1.0479191057e+01
 3  3  2    -6.0501637777e+00
 3  3  3     1.0940156791e+01

    5
0.0000000000e+00 0.0000000000e+00 0.0000000000e+00
-3.1845306930e+00 0.0000000000e+00 0.0000000000e+00
     1      1      1
 1  1  1    -1.5752260963e-09
 1  1  2    -1.1751971644e+01
 1  1  3     0.0000000000e+00
 1  2  1     1.5316932612e+00
 1  2  2     1.8845361559e-10
 1  2  3     0.0000000000e+00
 1  3  1     0.0000000000e+00
 1  3  2     0.0000000000e+00
 1  3  3     8.6798657644e-10
 2  1  1     1.5316932612e+00
 2  1  2     1.8845361559e-10
 2  1  3     0.0000000000e+00
 2  2  1     1.8845361559e-10
 2  2  2     1.0394668324e+00
 2  2  3     0.0000000000e+00
 2  3  1     0.0000000000e+00
 2  3  2     0.0000000000e+00
 2  3  3     4.7876144713e+00
 3  1  1     0.0000000000e+00
 3  1  2     0.0000000000e+00
 3  1  3     8.6798657644e-10
 3  2  1     0.0000000000e+00
 3  2  2     0.0000000000e+00
 3  2  3     4.7876144713e+00
 3  3  1     1.7775122571e-10
 3  3  2     9.8043490946e-01
 3  3  3     0.0000000000e+00

    6
0.0000000000e+00 0.0000000000e+00 0.0000000000e+00
-3.1845306930e+00 0.0000000000e+00 0.0000000000e+00
     1      1      3
 1  1  1    -2.1440970073e-13
 1  1  2     5.0549853494e-05
 1  1  3     2.8423409681e-03
 1  2  1    -6.1659224308e-04
 1  2  2     9.6194695274e-13
 1  2  3     1.1987781870e-12
 1  3  1     3.0485631159e-03
 1  3  2     9.8282029339e-27
 1  3  3    -2.1807716372e-13
 2  1  1    -6.1659224308e-04
 2  1  2     9.6194695274e-13
 2  1  3     1.1987781870e-12
 2  2  1     9.6194695274e-13
 2  2  2     5.3058783126e-03
 2  2  3     6.6121849713e-03
 2  3  1     9.8282029339e-27
 2  3  2     5.4210108624e-17
 2  3  3    -1.2028635157e-03
 3  1  1     3.0485631159e-03
 3  1  2     9.8282029339e-27
 3  1  3    -2.1807716372e-13
 3  2  1     9.8282029339e-27
 3  2  2     5.4210108624e-17
 3  2  3    -1.2028635157e-03
 3  3  1    -1.1973109255e-13
 3  3  2    -6.6040918938e-04
 3  3  3     1.0197533200e-02

    7
0.0000000000e+00 0.0000000000e+00 0.0000000000e+00
3.1845306930e+00 0.0000000000e+00 0.0000000000e+00
     1      1      4
 1  1  1    -5.5744624921e-01
 1  1  2     6.5480895633e-01
 1  1  3    -1.0410345217e+01
 1  2  1     1.3381424339e+00
 1  2  2     2.0870735048e-01
 1  2  3    -5.5607295468e+00
 1  3  1    -1.0696651755e+01
 1  3  2    -6.1011812904e+00
 1  3  3    -1.0755484267e+01
 2  1  1     1.3381424339e+00
 2  1  2     2.0870735048e-01
 2  1  3    -5.5607295468e+00
 2  2  1    -9.7486095150e-01
 2  2  2    -1.5394869310e+00
 2  2  3    -3.9893678130e+00
 2  3  1    -6.1011812904e+00
 2  3  2    -3.6516144310e+00
 2  3  3    -6.2096817358e+00
 3  1  1    -1.0696651755e+01
 3  1  2    -6.1011812904e+00
 3  1  3    -1.0755484267e+01
 3  2  1    -6.1011812904e+00
 3  2  2    -3.6516144310e+00
 3  2  3    -6.2096817358e+00
 3  3  1    -1.0479191059e+01
 3  3  2    -6.0501637777e+00
 3  3  3    -1.0940156791e+01

    8
0.0000000000e+00 0.0000000000e+00 0.0000000000e+00
3.1845306930e+00 0.0000000000e+00 0.0000000000e+00
     1      1      6
 1  1  1    -5.5744624921e-01
 1  1  2     6.5480895633e-01
 1  1  3     1.0410345217e+01
 1  2  1     1.3381424339e+00
 1  2  2     2.0870735048e-01
 1  2  3     5.5607295468e+00
 1  3  1     1.0696651755e+01
 1  3  2     6.1011812904e+00
 1  3  3    -1.0755484267e+01
 2  1  1     1.3381424339e+00
 2  1  2     2.0870735048e-01
 2  1  3     5.5607295468e+00
 2  2  1    -9.7486095150e-01
 2  2  2    -1.5394869310e+00
 2  2  3     3.9893678130e+00
 2  3  1     6.1011812904e+00
 2  3  2     3.6516144310e+00
 2  3  3    -6.2096817358e+00
 3  1  1     1.0696651755e+01
 3  1  2     6.1011812904e+00
 3  1  3    -1.0755484267e+01
 3  2  1     6.1011812904e+00
 3  2  2     3.6516144310e+00
 3  2  3    -6.2096817358e+00
 3  3  1    -1.0479191059e+01
 3  3  2    -6.0501637777e+00
 3  3  3     1.0940156791e+01

    9
0.0000000000e+00 0.0000000000e+00 0.0000000000e+00
-1.5922653460e+00 2.7578844790e+00 0.0000000000e+00
     1      1      1
 1  1  1     1.2059803460e+00
 1  1  2     2.2279663380e+00
 1  1  3     0.0000000000e+00
 1  2  1    -4.4138661127e+00
 1  2  2    -3.4326703046e+00
 1  2  3     0.0000000000e+00
 1  3  1     0.0000000000e+00
 1  3  2     0.0000000000e+00
 1  3  3    -4.1461957565e+00
 2  1  1    -4.4138661127e+00
 2  1  2    -3.4326703046e+00
 2  1  3     0.0000000000e+00
 2  2  1     8.0713209579e+00
 2  2  2     3.1282860660e+00
 2  2  3     0.0000000000e+00
 2  3  1     0.0000000000e+00
 2  3  2     0.0000000000e+00
 2  3  3    -2.3938072356e+00
 3  1  1     0.0000000000e+00
 3  1  2     0.0000000000e+00
 3  1  3    -4.1461957565e+00
 3  2  1     0.0000000000e+00
 3  2  2     0.0000000000e+00
 3  2  3    -2.3938072356e+00
 3  3  1    -8.4908153852e-01
 3  3  2    -4.9021745473e-01
 3  3  3     0.0000000000e+00

   10
0.0000000000e+00 0.0000000000e+00 0.0000000000e+00
-1.5922653460e+00 2.7578844790e+00 0.0000000000e+00
     1      1      3
 1  1  1    -3.1902211495e-03
 1  1  2    -2.4584672819e-03
 1  1  3     5.6697239721e-03
 1  2  1    -2.1248962338e-03
 1  2  2    -8.7081971475e-04
 1  2  3     1.6323903387e-03
 1  3  1     7.6214077850e-04
 1  3  2    -1.3200665512e-03
 1  3  3     1.0417103621e-03
 2  1  1    -2.1248962338e-03
 2  1  2    -8.7081971475e-04
 2  1  3     1.6323903387e-03
 2  2  1    -1.4485817183e-03
 2  2  2    -2.1974680192e-04
 2  2  3     3.7848019685e-03
 2  3  1    -1.3200665512e-03
 2  3  2     2.2864223365e-03
 2  3  3     6.0143175783e-04
 3  1  1     7.6214077850e-04
 3  1  2    -1.3200665512e-03
 3  1  3     1.0417103621e-03
 3  2  1    -1.3200665512e-03
 3  2  2     2.2864223365e-03
 3  2  3     6.0143175783e-04
 3  3  1     5.7193113501e-04
 3  3  2     3.3020459469e-04
 3  3  3     1.0197533200e-02

   11
0.0000000000e+00 0.0000000000e+00 0.0000000000e+00
1.5922653460e+00 -2.7578844790e+00 0.0000000000e+00
     1      1      4
 1  1  1     7.7897050397e-10
 1  1  2     2.3433176542e+00
 1  1  3    -7.7887911316e-01
 1  2  1     9.7665069861e-01
 1  2  2    -1.0405839786e-10
 1  2  3    -2.4694362813e-09
 1  3  1    -1.2909577133e-01
 1  3  2    -2.5779150138e-09
 1  3  3     2.2516111685e-09
 2  1  1     9.7665069861e-01
 2  1  2    -1.0405815683e-10
 2  1  3    -2.4694365900e-09
 2  2  1    -1.0405853335e-10
 2  2  2    -5.7396170409e-01
 2  2  3    -1.3620833913e+01
 2  3  1    -2.5779143365e-09
 2  3  2    -1.4219170410e+01
 2  3  3     1.2419363472e+01
 3  1  1    -1.2909577133e-01
 3  1  2    -2.5779137617e-09
 3  1  3     2.2516116732e-09
 3  2  1    -2.5779141004e-09
 3  2  2    -1.4219170410e+01
 3  2  3     1.2419363472e+01
 3  3  1     2.1937709477e-09
 3  3  2     1.2100327555e+01
 3  3  3    -1.0940156791e+01

   12
0.0000000000e+00 0.0000000000e+00 0.0000000000e+00
1.5922653460e+00 -2.7578844790e+00 0.0000000000e+00
     1      1      6
 1  1  1     7.7897050397e-10
 1  1  2     2.3433176542e+00
 1  1  3     7.7887911316e-01
 1  2  1     9.7665069861e-01
 1  2  2    -1.0405839786e-10
 1  2  3     2.4694362813e-09
 1  3  1     1.2909577133e-01
 1  3  2     2.5779150138e-09
 1  3  3     2.2516111685e-09
 2  1  1     9.7665069861e-01
 2  1  2    -1.0405815683e-10
 2  1  3     2.4694365900e-09
 2  2  1    -1.0405853335e-10
 2  2  2    -5.7396170409e-01
 2  2  3     1.3620833913e+01
 2  3  1     2.5779143365e-09
 2  3  2     1.4219170410e+01
 2  3  3     1.2419363472e+01
 3  1  1     1.2909577133e-01
 3  1  2     2.5779137617e-09
 3  1  3     2.2516116732e-09
 3  2  1     2.5779141004e-09
 3  2  2     1.4219170410e+01
 3  2  3     1.2419363472e+01
 3  3  1     2.1937709477e-09
 3  3  2     1.2100327555e+01
 3  3  3     1.0940156791e+01

   13
0.0000000000e+00 0.0000000000e+00 0.0000000000e+00
-1.5922653470e+00 -2.7578844790e+00 0.0000000000e+00
     1      1      1
 1  1  1    -1.2059803484e+00
 1  1  2     2.2279663405e+00
 1  1  3     0.0000000000e+00
 1  2  1    -4.4138661144e+00
 1  2  2     3.4326703058e+00
 1  2  3     0.0000000000e+00
 1  3  1     0.0000000000e+00
 1  3  2     0.0000000000e+00
 1  3  3     4.1461957556e+00
 2  1  1    -4.4138661144e+00
 2  1  2     3.4326703058e+00
 2  1  3     0.0000000000e+00
 2  2  1    -8.0713209567e+00
 2  2  2     3.1282860660e+00
 2  2  3     0.0000000000e+00
 2  3  1     0.0000000000e+00
 2  3  2     0.0000000000e+00
 2  3  3    -2.3938072356e+00
 3  1  1     0.0000000000e+00
 3  1  2     0.0000000000e+00
 3  1  3     4.1461957556e+00
 3  2  1     0.0000000000e+00
 3  2  2     0.0000000000e+00
 3  2  3    -2.3938072356e+00
 3  3  1     8.4908153834e-01
 3  3  2    -4.9021745473e-01
 3  3  3     0.0000000000e+00

   14
0.0000000000e+00 0.0000000000e+00 0.0000000000e+00
-1.5922653470e+00 -2.7578844790e+00 0.0000000000e+00
     1      1      3
 1  1  1     3.1902211470e-03
 1  1  2    -2.4584672813e-03
 1  1  3     5.6697239709e-03
 1  2  1    -2.1248962329e-03
 1  2  2     8.7081971467e-04
 1  2  3    -1.6323903373e-03
 1  3  1     7.6214077946e-04
 1  3  2     1.3200665520e-03
 1  3  3    -1.0417103618e-03
 2  1  1    -2.1248962329e-03
 2  1  2     8.7081971467e-04
 2  1  3    -1.6323903373e-03
 2  2  1     1.4485817182e-03
 2  2  2    -2.1974680192e-04
 2  2  3     3.7848019685e-03
 2  3  1     1.3200665520e-03
 2  3  2     2.2864223365e-03
 2  3  3     6.0143175783e-04
 3  1  1     7.6214077946e-04
 3  1  2     1.3200665520e-03
 3  1  3    -1.0417103618e-03
 3  2  1     1.3200665520e-03
 3  2  2     2.2864223365e-03
 3  2  3     6.0143175783e-04
 3  3  1    -5.7193113489e-04
 3  3  2     3.3020459469e-04
 3  3  3     1.0197533200e-02

   15
0.0000000000e+00 0.0000000000e+00 0.0000000000e+00
4.7767960390e+00 -2.7578844790e+00 0.0000000000e+00
     1      1      4
 1  1  1     0.0000000000e+00
 1  1  2     0.0000000000e+00
 1  1  3    -1.3394475845e+00
 1  2  1     0.0000000000e+00
 1  2  2     0.0000000000e+00
 1  2  3    -2.4283962919e-10
 1  3  1     7.2070568725e-01
 1  3  2     1.3066274775e-10
 1  3  3     0.0000000000e+00
 2  1  1     0.0000000000e+00
 2  1  2     0.0000000000e+00
 2  1  3    -2.4283962919e-10
 2  2  1     0.0000000000e+00
 2  2  2     0.0000000000e+00
 2  2  3    -1.3394475842e+00
 2  3  1     1.3066274775e-10
 2  3  2     7.2070568711e-01
 2  3  3     0.0000000000e+00
 3  1  1     7.2070568725e-01
 3  1  2     1.3066274775e-10
 3  1  3     0.0000000000e+00
 3  2  1     1.3066274775e-10
 3  2  2     7.2070568711e-01
 3  2  3     0.0000000000e+00
 3  3  1     0.0000000000e+00
 3  3  2     0.0000000000e+00
 3  3  3    -6.9433973929e-02

   16
0.0000000000e+00 0.0000000000e+00 0.0000000000e+00
4.7767960390e+00 -2.7578844790e+00 0.0000000000e+00
     1      1      6
 1  1  1     0.0000000000e+00
 1  1  2     0.0000000000e+00
 1  1  3     1.3394475845e+00
 1  2  1     0.0000000000e+00
 1  2  2     0.0000000000e+00
 1  2  3     2.4283973165e-10
 1  3  1    -7.2070568725e-01
 1  3  2    -1.3066272286e-10
 1  3  3     0.0000000000e+00
 2  1  1     0.0000000000e+00
 2  1  2     0.0000000000e+00
 2  1  3     2.4283973165e-10
 2  2  1     0.0000000000e+00
 2  2  2     0.0000000000e+00
 2  2  3     1.3394475842e+00
 2  3  1    -1.3066272286e-10
 2  3  2    -7.2070568711e-01
 2  3  3     0.0000000000e+00
 3  1  1    -7.2070568725e-01
 3  1  2    -1.3066280288e-10
 3  1  3     0.0000000000e+00
 3  2  1    -1.3066280288e-10
 3  2  2    -7.2070568711e-01
 3  2  3     0.0000000000e+00
 3  3  1     0.0000000000e+00
 3  3  2     0.0000000000e+00
 3  3  3     6.9433973929e-02

   17
0.0000000000e+00 0.0000000000e+00 0.0000000000e+00
0.0000000000e+00 0.0000000000e+00 -1.4592912855e+01
     1      1      5
 1  1  1     0.0000000000e+00
 1  1  2     0.0000000000e+00
 1  1  3    -2.6798577386e-03
 1  2  1     0.0000000000e+00
 1  2  2     0.0000000000e+00
 1  2  3    -4.8585397567e-13
 1  3  1     2.9924214036e-03
 1  3  2     5.4252094227e-13
 1  3  3     0.0000000000e+00
 2  1  1     0.0000000000e+00
 2  1  2     0.0000000000e+00
 2  1  3    -4.8585397567e-13
 2  2  1     0.0000000000e+00
 2  2  2     0.0000000000e+00
 2  2  3    -2.6798577381e-03
 2  3  1     5.4252094227e-13
 2  3  2     2.9924214030e-03
 2  3  3     0.0000000000e+00
 3  1  1     2.9924214036e-03
 3  1  2     5.4252127450e-13
 3  1  3     0.0000000000e+00
 3  2  1     5.4252127450e-13
 3  2  2     2.9924214030e-03
 3  2  3     0.0000000000e+00
 3  3  1     0.0000000000e+00
 3  3  2     0.0000000000e+00
 3  3  3    -5.4971773586e-03

   18
0.0000000000e+00 0.0000000000e+00 0.0000000000e+00
-3.1845306930e+00 0.0000000000e+00 -1.4592912855e+01
     1      1      5
 1  1  1    -2.1440970073e-13
 1  1  2     5.0549853494e-05
 1  1  3    -2.8423409681e-03
 1  2  1    -6.1659224308e-04
 1  2  2     9.6194695274e-13
 1  2  3    -1.1987781870e-12
 1  3  1    -3.0485631159e-03
 1  3  2    -9.8282029339e-27
 1  3  3    -2.1807716372e-13
 2  1  1    -6.1659224308e-04
 2  1  2     9.6194695274e-13
 2  1  3    -1.1987781870e-12
 2  2  1     9.6194695274e-13
 2  2  2     5.3058783126e-03
 2  2  3    -6.6121849713e-03
 2  3  1    -9.8282029339e-27
 2  3  2    -5.4210108624e-17
 2  3  3    -1.2028635157e-03
 3  1  1    -3.0485631159e-03
 3  1  2    -9.8282029339e-27
 3  1  3    -2.1807716372e-13
 3  2  1    -9.8282029339e-27
 3  2  2    -5.4210108624e-17
 3  2  3    -1.2028635157e-03
 3  3  1    -1.1973109255e-13
 3  3  2    -6.6040918938e-04
 3  3  3    -1.0197533200e-02

   19
0.0000000000e+00 0.0000000000e+00 0.0000000000e+00
1.5922653460e+00 -2.7578844790e+00 -1.4592912855e+01
     1      1      5
 1  1  1    -3.1902211495e-03
 1  1  2    -2.4584672819e-03
 1  1  3    -5.6697239721e-03
 1  2  1    -2.1248962338e-03
 1  2  2    -8.7081971475e-04
 1  2  3    -1.6323903387e-03
 1  3  1    -7.6214077850e-04
 1  3  2     1.3200665512e-03
 1  3  3     1.0417103621e-03
 2  1  1    -2.1248962338e-03
 2  1  2    -8.7081971475e-04
 2  1  3    -1.6323903387e-03
 2  2  1    -1.4485817183e-03
 2  2  2    -2.1974680192e-04
 2  2  3    -3.7848019685e-03
 2  3  1     1.3200665512e-03
 2  3  2    -2.2864223365e-03
 2  3  3     6.0143175783e-04
 3  1  1    -7.6214077850e-04
 3  1  2     1.3200665512e-03
 3  1  3     1.0417103621e-03
 3  2  1     1.3200665512e-03
 3  2  2    -2.2864223365e-03
 3  2  3     6.0143175783e-04
 3  3  1     5.7193113501e-04
 3  3  2     3.3020459469e-04
 3  3  3    -1.0197533200e-02

   20
0.0000000000e+00 0.0000000000e+00 0.0000000000e+00
-1.5922653470e+00 -2.7578844790e+00 -1.4592912855e+01
     1      1      5
 1  1  1     3.1902211470e-03
 1  1  2    -2.4584672813e-03
 1  1  3    -5.6697239709e-03
 1  2  1    -2.1248962329e-03
 1  2  2     8.7081971467e-04
 1  2  3     1.6323903373e-03
 1  3  1    -7.6214077946e-04
 1  3  2    -1.3200665520e-03
 1  3  3    -1.0417103618e-03
 2  1  1    -2.1248962329e-03
 2  1  2     8.7081971467e-04
 2  1  3     1.6323903373e-03
 2  2  1     1.4485817182e-03
 2  2  2    -2.1974680192e-04
 2  2  3    -3.7848019685e-03
 2  3  1    -1.3200665520e-03
 2  3  2    -2.2864223365e-03
 2  3  3     6.0143175783e-04
 3  1  1    -7.6214077946e-04
 3  1  2    -1.3200665520e-03
 3  1  3    -1.0417103618e-03
 3  2  1    -1.3200665520e-03
 3  2  2    -2.2864223365e-03
 3  2  3     6.0143175783e-04
 3  3  1    -5.7193113489e-04
 3  3  2     3.3020459469e-04
 3  3  3    -1.0197533200e-02

   21
0.0000000000e+00 0.0000000000e+00 0.0000000000e+00
0.0000000000e+00 0.0000000000e+00 0.0000000000e+00
     1      3      1
 1  1  1     0.0000000000e+00
 1  1  2     0.0000000000e+00
 1  1  3    -2.9924214036e-03
 1  2  1     0.0000000000e+00
 1  2  2     0.0000000000e+00
 1  2  3    -5.4252104559e-13
 1  3  1     2.6798577386e-03
 1  3  2     4.8585377068e-13
 1  3  3     0.0000000000e+00
 2  1  1     0.0000000000e+00
 2  1  2     0.0000000000e+00
 2  1  3    -5.4252104559e-13
 2  2  1     0.0000000000e+00
 2  2  2     0.0000000000e+00
 2  2  3    -2.9924214030e-03
 2  3  1     4.8585377068e-13
 2  3  2     2.6798577381e-03
 2  3  3     0.0000000000e+00
 3  1  1    -2.9924214036e-03
 3  1  2    -5.4252104559e-13
 3  1  3     0.0000000000e+00
 3  2  1    -5.4252104559e-13
 3  2  2    -2.9924214030e-03
 3  2  3     0.0000000000e+00
 3  3  1     0.0000000000e+00
 3  3  2     0.0000000000e+00
 3  3  3     5.4971773586e-03

   22
0.0000000000e+00 0.0000000000e+00 0.0000000000e+00
0.0000000000e+00 0.0000000000e+00 0.0000000000e+00
     1      3      3
 1  1  1     0.0000000000e+00
 1  1  2     0.0000000000e+00
 1  1  3    -5.8827287446e-04
 1  2  1     0.0000000000e+00
 1  2  2     0.0000000000e+00
 1  2  3    -1.0665289807e-13
 1  3  1    -5.8827287446e-04
 1  3  2    -1.0665289807e-13
 1  3  3     0.0000000000e+00
 2  1  1     0.0000000000e+00
 2  1  2     0.0000000000e+00
 2  1  3    -1.0665289807e-13
 2  2  1     0.0000000000e+00
 2  2  2     0.0000000000e+00
 2  2  3    -5.8827287434e-04
 2  3  1    -1.0665289807e-13
 2  3  2    -5.8827287434e-04
 2  3  3     0.0000000000e+00
 3  1  1    -5.1476867751e-03
 3  1  2    -9.3326708875e-13
 3  1  3     0.0000000000e+00
 3  2  1    -9.3326708875e-13
 3  2  2    -5.1476867741e-03
 3  2  3     0.0000000000e+00
 3  3  1     0.0000000000e+00
 3  3  2     0.0000000000e+00
 3  3  3     1.6825573690e-02

   23
0.0000000000e+00 0.0000000000e+00 0.0000000000e+00
0.0000000000e+00 0.0000000000e+00 0.0000000000e+00
     1      3      4
 1  1  1     1.7822842660e-03
 1  1  2    -6.1157110486e-04
 1  1  3    -1.9044437409e-03
 1  2  1    -6.4584608828e-04
 1  2  2    -1.1686586253e-03
 1  2  3     1.2108910464e-03
 1  3  1     2.9240559613e-03
 1  3  2    -4.3853742256e-03
 1  3  3     0.0000000000e+00
 2  1  1     8.9788061201e-04
 2  1  2     1.5051544515e-03
 2  1  3     1.2108910464e-03
 2  2  1     1.4457884388e-03
 2  2  2    -1.2521575401e-03
 2  2  3    -5.0622719783e-04
 2  3  1    -4.3853742256e-03
 2  3  2    -2.1397380161e-03
 2  3  3     0.0000000000e+00
 3  1  1    -4.3725512770e-03
 3  1  2     3.7867404860e-03
 3  1  3     2.2346873022e-03
 3  2  1     3.7867404860e-03
 3  2  2     0.0000000000e+00
 3  2  3    -1.2901973155e-03
 3  3  1     0.0000000000e+00
 3  3  2     0.0000000000e+00
 3  3  3    -3.6840992193e-03

   24
0.0000000000e+00 0.0000000000e+00 0.0000000000e+00
-3.1845306930e+00 0.0000000000e+00 0.0000000000e+00
     1      3      1
 1  1  1    -6.7021060605e-13
 1  1  2     1.7489215570e-03
 1  1  3     0.0000000000e+00
 1  2  1    -3.4364720751e-03
 1  2  2     1.2134652063e-13
 1  2  3     6.8279886248e-13
 1  3  1    -2.1367338399e-03
 1  3  2     2.3163163735e-13
 1  3  3     2.6726240333e-12
 2  1  1    -2.0091771543e-03
 2  1  2     1.2134652063e-13
 2  1  3     6.8279886248e-13
 2  2  1     1.2134652063e-13
 2  2  2     6.6931951943e-04
 2  2  3     3.7661616017e-03
 2  3  1     2.3163163735e-13
 2  3  2     1.2776268771e-03
 2  3  3     1.4741579934e-02
 3  1  1     5.9873484576e-04
 3  1  2     6.8746303511e-13
 3  1  3     9.7468280848e-13
 3  2  1     6.8746303511e-13
 3  2  2     3.7918881060e-03
 3  2  3     5.3761263659e-03
 3  3  1     1.9802902895e-12
 3  3  2     1.0922826118e-02
 3  3  3    -4.6417080138e-03

   25
0.0000000000e+00 0.0000000000e+00 0.0000000000e+00
-3.1845306930e+00 0.0000000000e+00 0.0000000000e+00
     1      3      3
 1  1  1     2.1673284537e-13
 1  1  2    -6.5167754486e-04
 1  1  3     0.0000000000e+00
 1  2  1     1.8471261095e-03
 1  2  2    -3.0724584889e-13
 1  2  3    -1.0576822215e-13
 1  3  1     6.2877494551e-04
 1  3  2    -1.0689609315e-13
 1  3  3     0.0000000000e+00
 2  1  1     0.0000000000e+00
 2  1  2    -3.0724584889e-13
 2  1  3    -1.0576822215e-13
 2  2  1    -3.0724584889e-13
 2  2  2    -1.6946974900e-03
 2  2  3    -5.8339320528e-04
 2  3  1    -1.0689609315e-13
 2  3  2    -5.8961428248e-04
 2  3  3     0.0000000000e+00
 3  1  1     3.5255670687e-03
 3  1  2     5.0696384836e-13
 3  1  3    -3.1261585432e-13
 3  2  1     5.0696384836e-13
 3  2  2     2.7962960750e-03
 3  2  3    -1.7243172057e-03
 3  3  1     1.1333727386e-13
 3  3  2     6.2514235496e-04
 3  3  3     6.5688695239e-04

   26
0.0000000000e+00 0.0000000000e+00 0.0000000000e+00
3.1845306930e+00 0.0000000000e+00 0.0000000000e+00
     1      3      4
 1  1  1    -1.7822842662e-03
 1  1  2    -6.1157110498e-04
 1  1  3    -1.9044437418e-03
 1  2  1    -6.4584608838e-04
 1  2  2     1.1686586248e-03
 1  2  3    -1.2108910466e-03
 1  3  1     2.9240559645e-03
 1  3  2     4.3853742248e-03
 1  3  3     0.0000000000e+00
 2  1  1     8.9788061094e-04
 2  1  2    -1.5051544520e-03
 2  1  3    -1.2108910466e-03
 2  2  1    -1.4457884393e-03
 2  2  2    -1.2521575401e-03
 2  2  3    -5.0622719783e-04
 2  3  1     4.3853742248e-03
 2  3  2    -2.1397380161e-03
 2  3  3     0.0000000000e+00
 3  1  1    -4.3725512797e-03
 3  1  2    -3.7867404860e-03
 3  1  3    -2.2346873026e-03
 3  2  1    -3.7867404860e-03
 3  2  2     0.0000000000e+00
 3  2  3    -1.2901973155e-03
 3  3  1     0.0000000000e+00
 3  3  2     0.0000000000e+00
 3  3  3    -3.6840992193e-03

   27
0.0000000000e+00 0.0000000000e+00 0.0000000000e+00
-1.5922653460e+00 2.7578844790e+00 0.0000000000e+00
     1      3      1
 1  1  1     3.6562923787e-04
 1  1  2    -2.5117284750e-03
 1  1  3     2.8246212024e-03
 1  2  1     8.0968340268e-05
 1  2  2     7.9472151089e-04
 1  2  3     1.6307958113e-03
 1  3  1     4.2403669854e-04
 1  3  2     1.4784615590e-03
 1  3  3    -1.2766582717e-02
 2  1  1    -6.3267911990e-04
 2  1  2     2.0307951709e-03
 2  1  3     1.6307958113e-03
 2  2  1    -2.4598874427e-03
 2  2  2     1.3026079369e-03
 2  2  3     9.4154040043e-04
 2  3  1     1.4784615590e-03
 2  3  2    -1.2831436604e-03
 2  3  3    -7.3707899670e-03
 3  1  1     2.9935997920e-03
 3  1  2     1.3826759212e-03
 3  1  3    -4.6558620077e-03
 3  2  1     1.3826759212e-03
 3  2  2     1.3970231607e-03
 3  2  3    -2.6880631829e-03
 3  3  1    -9.4594449014e-03
 3  3  2    -5.4614130591e-03
 3  3  3    -4.6417080138e-03

   28
0.0000000000e+00 0.0000000000e+00 0.0000000000e+00
-1.5922653460e+00 2.7578844790e+00 0.0000000000e+00
     1      3      3
 1  1  1     8.4191610283e-04
 1  1  2     1.4096435430e-03
 1  1  3    -4.3754490414e-04
 1  2  1     1.6024171618e-04
 1  2  2     6.2573497594e-04
 1  2  3    -2.5261666813e-04
 1  3  1    -2.8501697576e-04
 1  3  2    -5.2757801151e-04
 1  3  3     0.0000000000e+00
 2  1  1     1.0838047706e-03
 2  1  2    -9.7392315870e-04
 2  1  3    -2.5261666813e-04
 2  2  1     1.1901042848e-03
 2  2  2    -2.3645602540e-04
 2  2  3    -1.4584830132e-04
 2  3  1    -5.2757801151e-04
 2  3  2     3.2417763842e-04
 2  3  3     0.0000000000e+00
 3  1  1     2.9786138237e-03
 3  1  2    -3.1578360255e-04
 3  1  3     1.4933025046e-03
 3  2  1    -3.1578360255e-04
 3  2  2     3.3432493198e-03
 3  2  3     8.6215860286e-04
 3  3  1    -5.4138916048e-04
 3  3  2    -3.1257117748e-04
 3  3  3     6.5688695239e-04

   29
0.0000000000e+00 0.0000000000e+00 0.0000000000e+00
1.5922653460e+00 -2.7578844790e+00 0.0000000000e+00
     1      3      4
 1  1  1     4.9448616154e-13
 1  1  2     1.8926079288e-03
 1  1  3     1.9288107379e-04
 1  2  1     1.9611578956e-03
 1  2  2     3.3265525480e-13
 1  2  3    -4.7201997956e-13
 1  3  1    -4.6716350062e-03
 1  3  2     9.8915583682e-13
 1  3  3     0.0000000000e+00
 2  1  1    -1.1262955040e-03
 2  1  2     3.3265539454e-13
 2  1  3    -4.7202004678e-13
 2  2  1     3.3265539619e-13
 2  2  2     1.8348493614e-03
 2  2  3    -2.6035520126e-03
 2  3  1     9.8915608026e-13
 2  3  2     5.4559529515e-03
 2  3  3     0.0000000000e+00
 3  1  1     2.1862756392e-03
 3  1  2    -1.1891052223e-12
 3  1  3     4.6782161467e-13
 3  2  1    -1.1891054325e-12
 3  2  2    -6.5588269163e-03
 3  2  3     2.5803946309e-03
 3  3  1     0.0000000000e+00
 3  3  2     0.0000000000e+00
 3  3  3    -3.6840992193e-03

   30
0.0000000000e+00 0.0000000000e+00 0.0000000000e+00
-1.5922653470e+00 -2.7578844790e+00 0.0000000000e+00
     1      3      1
 1  1  1    -3.6562923898e-04
 1  1  2    -2.5117284760e-03
 1  1  3     2.8246212013e-03
 1  2  1     8.0968340872e-05
 1  2  2    -7.9472151042e-04
 1  2  3    -1.6307958109e-03
 1  3  1     4.2403669747e-04
 1  3  2    -1.4784615595e-03
 1  3  3     1.2766582715e-02
 2  1  1    -6.3267911975e-04
 2  1  2    -2.0307951704e-03
 2  1  3    -1.6307958109e-03
 2  2  1     2.4598874432e-03
 2  2  2     1.3026079369e-03
 2  2  3     9.4154040043e-04
 2  3  1    -1.4784615595e-03
 2  3  2    -1.2831436604e-03
 2  3  3    -7.3707899670e-03
 3  1  1     2.9935997910e-03
 3  1  2    -1.3826759207e-03
 3  1  3     4.6558620068e-03
 3  2  1    -1.3826759207e-03
 3  2  2     1.3970231607e-03
 3  2  3    -2.6880631829e-03
 3  3  1     9.4594448995e-03
 3  3  2    -5.4614130591e-03
 3  3  3    -4.6417080138e-03

   31
0.0000000000e+00 0.0000000000e+00 0.0000000000e+00
-1.5922653470e+00 -2.7578844790e+00 0.0000000000e+00
     1      3      3
 1  1  1    -8.4191610187e-04
 1  1  2     1.4096435431e-03
 1  1  3    -4.3754490395e-04
 1  2  1     1.6024171552e-04
 1  2  2    -6.2573497603e-04
 1  2  3     2.5261666808e-04
 1  3  1    -2.8501697537e-04
 1  3  2     5.2757801163e-04
 1  3  3     0.0000000000e+00
 2  1  1     1.0838047705e-03
 2  1  2     9.7392315861e-04
 2  1  3     2.5261666808e-04
 2  2  1    -1.1901042849e-03
 2  2  2    -2.3645602540e-04
 2  2  3    -1.4584830132e-04
 2  3  1     5.2757801163e-04
 2  3  2     3.2417763842e-04
 2  3  3     0.0000000000e+00
 3  1  1     2.9786138239e-03
 3  1  2     3.1578360376e-04
 3  1  3    -1.4933025043e-03
 3  2  1     3.1578360376e-04
 3  2  2     3.3432493198e-03
 3  2  3     8.6215860286e-04
 3  3  1     5.4138916037e-04
 3  3  2    -3.1257117748e-04
 3  3  3     6.5688695239e-04

   32
0.0000000000e+00 0.0000000000e+00 0.0000000000e+00
4.7767960390e+00 -2.7578844790e+00 0.0000000000e+00
     1      3      4
 1  1  1     0.0000000000e+00
 1  1  2     0.0000000000e+00
 1  1  3     2.1805651135e-03
 1  2  1     0.0000000000e+00
 1  2  2     0.0000000000e+00
 1  2  3     3.9533284448e-13
 1  3  1    -2.1473890639e-03
 1  3  2    -3.8931808162e-13
 1  3  3     0.0000000000e+00
 2  1  1     0.0000000000e+00
 2  1  2     0.0000000000e+00
 2  1  3     3.9533284448e-13
 2  2  1     0.0000000000e+00
 2  2  2     0.0000000000e+00
 2  2  3     2.1805651131e-03
 2  3  1    -3.8931808162e-13
 2  3  2    -2.1473890635e-03
 2  3  3     0.0000000000e+00
 3  1  1    -1.3384721211e-03
 3  1  2    -2.4266277931e-13
 3  1  3     0.0000000000e+00
 3  2  1    -2.4266277931e-13
 3  2  2    -1.3384721209e-03