 1176

    1
0.0000000000e+00 0.0000000000e+00 0.0000000000e+00
0.0000000000e+00 0.0000000000e+00 0.0000000000e+00
     1      1      1
 1  1  1     0.0000000000e+00
 1  1  2     0.0000000000e+00
 1  1  3     0.0000000000e+00
 1  2  1     0.0000000000e+00
 1  2  2     0.0000000000e+00
 1  2  3     0.0000000000e+00
 1  3  1     0.0000000000e+00
 1  3  2     0.0000000000e+00
 1  3  3     0.0000000000e+00
 2  1  1     0.0000000000e+00
 2  1  2     0.0000000000e+00
 2  1  3     0.0000000000e+00
 2  2  1     0.0000000000e+00
 2  2  2     0.0000000000e+00
 2  2  3     0.0000000000e+00
 2  3  1     0.0000000000e+00
 2  3  2     0.0000000000e+00
 2  3  3     0.0000000000e+00
 3  1  1     0.0000000000e+00
 3  1  2     0.0000000000e+00
 3  1  3     0.0000000000e+00
 3  2  1     0.0000000000e+00
 3  2  2     0.0000000000e+00
 3  2  3     0.0000000000e+00
 3  3  1     0.0000000000e+00
 3  3  2     0.0000000000e+00
 3  3  3     0.0000000000e+00

    2
0.0000000000e+00 0.0000000000e+00 0.0000000000e+00
0.0000000000e+00 0.0000000000e+00 0.0000000000e+00
     1      1      3
 1  1  1     0.0000000000e+00
 1  1  2     0.0000000000e+00
 1  1  3     2.7417800536e-03
 1  2  1     0.0000000000e+00
 1  2  2     0.0000000000e+00
 1  2  3     4.9680049459e-13
 1  3  1     2.7199973386e-03
 1  3  2     4.9285354648e-13
 1  3  3     0.0000000000e+00
 2  1  1     0.0000000000e+00
 2  1  2     0.0000000000e+00
 2  1  3     4.9680049459e-13
 2  2  1     0.0000000000e+00
 2  2  2     0.0000000000e+00
 2  2  3     2.7417800536e-03
 2  3  1     4.9285354648e-13
 2  3  2     2.7199973385e-03
 2  3  3     0.0000000000e+00
 3  1  1     2.7199973386e-03
 3  1  2     4.9285354648e-13
 3  1  3     0.0000000000e+00
 3  2  1     4.9285354648e-13
 3  2  2     2.7199973385e-03
 3  2  3     0.0000000000e+00
 3  3  1     0.0000000000e+00
 3  3  2     0.0000000000e+00
 3  3  3     6.1663066309e-03

    3
0.0000000000e+00 0.0000000000e+00 0.0000000000e+00
0.0000000000e+00 0.0000000000e+00 0.0000000000e+00
     1      1      4
 1  1  1     5.5022305518e-01
 1  1  2     6.4194124017e-01
 1  1  3    -1.0427762038e+01
 1  2  1     1.3269626958e+00
 1  2  2    -2.1208963711e-01
 1  2  3     5.5826594238e+00
 1  3  1    -1.0718790467e+01
 1  3  2     6.1098121336e+00
 1  3  3     1.0792784020e+01
 2  1  1     1.3269626958e+00
 2  1  2    -2.1208963711e-01
 2  1  3     5.5826594238e+00
 2  2  1     9.7440232797e-01
 2  2  2    -1.5221841154e+00
 2  2  3    -3.9814621963e+00
 2  3  1     6.1098121336e+00
 2  3  2    -3.6637871080e+00
 2  3  3    -6.2312167600e+00
 3  1  1    -1.0718790467e+01
 3  1  2     6.1098121336e+00
 3  1  3     1.0792784020e+01
 3  2  1     6.1098121336e+00
 3  2  2    -3.6637871080e+00
 3  2  3    -6.2312167600e+00
 3  3  1     1.0449109499e+01
 3  3  2    -6.0327961824e+00
 3  3  3    -1.0959071699e+01

    4
0.0000000000e+00 0.0000000000e+00 0.0000000000e+00
0.0000000000e+00 0.0000000000e+00 0.0000000000e+00
     1      1      6
 1  1  1     5.5022305518e-01
 1  1  2     6.4194124017e-01
 1  1  3     1.0427762038e+01
 1  2  1     1.3269626958e+00
 1  2  2    -2.1208963711e-01
 1  2  3    -5.5826594238e+00
 1  3  1     1.0718790467e+01
 1  3  2    -6.1098121336e+00
 1  3  3     1.0792784020e+01
 2  1  1     1.3269626958e+00
 2  1  2    -2.1208963711e-01
 2  1  3    -5.5826594238e+00
 2  2  1     9.7440232797e-01
 2  2  2    -1.5221841154e+00
 2  2  3     3.9814621963e+00
 2  3  1    -6.1098121336e+00
 2  3  2     3.6637871080e+00
 2  3  3    -6.2312167600e+00
 3  1  1     1.0718790467e+01
 3  1  2    -6.1098121336e+00
 3  1  3     1.0792784020e+01
 3  2  1    -6.1098121336e+00
 3  2  2     3.6637871080e+00
 3  2  3    -6.2312167600e+00
 3  3  1     1.0449109499e+01
 3  3  2    -6.0327961824e+00
 3  3  3     1.0959071699e+01

    5
0.0000000000e+00 0.0000000000e+00 0.0000000000e+00
-3.1863240050e+00 0.0000000000e+00 0.0000000000e+00
     1      1      1
 1  1  1    -1.5632585380e-09
 1  1  2    -1.1669517941e+01
 1  1  3     0.0000000000e+00
 1  2  1     1.5210443859e+00
 1  2  2     1.8276841639e-10
 1  2  3     0.0000000000e+00
 1  3  1     0.0000000000e+00
 1  3  2     0.0000000000e+00
 1  3  3     8.6995283645e-10
 2  1  1     1.5210443859e+00
 2  1  2     1.8276841639e-10
 2  1  3     0.0000000000e+00
 2  2  1     1.8276841639e-10
 2  2  2     1.0086761264e+00
 2  2  3     0.0000000000e+00
 2  3  1     0.0000000000e+00
 2  3  2     0.0000000000e+00
 2  3  3     4.8011613525e+00
 3  1  1     0.0000000000e+00
 3  1  2     0.0000000000e+00
 3  1  3     8.6995283645e-10
 3  2  1     0.0000000000e+00
 3  2  2     0.0000000000e+00
 3  2  3     4.8011613525e+00
 3  3  1     1.7610586414e-10
 3  3  2     9.7190633034e-01
 3  3  3     0.0000000000e+00

    6
0.0000000000e+00 0.0000000000e+00 0.0000000000e+00
3.1863240050e+00 0.0000000000e+00 0.0000000000e+00
     1      1      4
 1  1  1    -5.5022305398e-01
 1  1  2     6.4194124033e-01
 1  1  3    -1.0427762042e+01
 1  2  1     1.3269626955e+00
 1  2  2     2.1208963656e-01
 1  2  3    -5.5826594253e+00
 1  3  1    -1.0718790471e+01
 1  3  2    -6.1098121349e+00
 1  3  3    -1.0792784023e+01
 2  1  1     1.3269626955e+00
 2  1  2     2.1208963656e-01
 2  1  3    -5.5826594253e+00
 2  2  1    -9.7440232852e-01
 2  2  2    -1.5221841154e+00
 2  2  3    -3.9814621963e+00
 2  3  1    -6.1098121349e+00
 2  3  2    -3.6637871080e+00
 2  3  3    -6.2312167600e+00
 3  1  1    -1.0718790471e+01
 3  1  2    -6.1098121349e+00
 3  1  3    -1.0792784023e+01
 3  2  1    -6.1098121349e+00
 3  2  2    -3.6637871080e+00
 3  2  3    -6.2312167600e+00
 3  3  1    -1.0449109501e+01
 3  3  2    -6.0327961824e+00
 3  3  3    -1.0959071699e+01

    7
0.0000000000e+00 0.0000000000e+00 0.0000000000e+00
3.1863240050e+00 0.0000000000e+00 0.0000000000e+00
     1      1      6
 1  1  1    -5.5022305398e-01
 1  1  2     6.4194124033e-01
 1  1  3     1.0427762042e+01
 1  2  1     1.3269626955e+00
 1  2  2     2.1208963656e-01
 1  2  3     5.5826594253e+00
 1  3  1     1.0718790471e+01
 1  3  2     6.1098121349e+00
 1  3  3    -1.0792784023e+01
 2  1  1     1.3269626955e+00
 2  1  2     2.1208963656e-01
 2  1  3     5.5826594253e+00
 2  2  1    -9.7440232852e-01
 2  2  2    -1.5221841154e+00
 2  2  3     3.9814621963e+00
 2  3  1     6.1098121349e+00
 2  3  2     3.6637871080e+00
 2  3  3    -6.2312167600e+00
 3  1  1     1.0718790471e+01
 3  1  2     6.1098121349e+00
 3  1  3    -1.0792784023e+01
 3  2  1     6.1098121349e+00
 3  2  2     3.6637871080e+00
 3  2  3    -6.2312167600e+00
 3  3  1    -1.0449109501e+01
 3  3  2    -6.0327961824e+00
 3  3  3     1.0959071699e+01

    8
0.0000000000e+00 0.0000000000e+00 0.0000000000e+00
-1.5931620020e+00 2.7594375330e+00 0.0000000000e+00
     1      1      1
 1  1  1     1.2127388440e+00
 1  1  2     2.2212194834e+00
 1  1  3     0.0000000000e+00
 1  2  1    -4.3740616779e+00
 1  2  2    -3.4035410727e+00
 1  2  3     0.0000000000e+00
 1  3  1     0.0000000000e+00
 1  3  2     0.0000000000e+00
 1  3  3    -4.1579276994e+00
 2  1  1    -4.3740616779e+00
 2  1  2    -3.4035410727e+00
 2  1  3     0.0000000000e+00
 2  2  1     8.0198209923e+00
 2  2  2     3.1092014225e+00
 2  2  3     0.0000000000e+00
 2  3  1     0.0000000000e+00
 2  3  2     0.0000000000e+00
 2  3  3    -2.4005806762e+00
 3  1  1     0.0000000000e+00
 3  1  2     0.0000000000e+00
 3  1  3    -4.1579276994e+00
 3  2  1     0.0000000000e+00
 3  2  2     0.0000000000e+00
 3  2  3    -2.4005806762e+00
 3  3  1    -8.4169557227e-01
 3  3  2    -4.8595316517e-01
 3  3  3     0.0000000000e+00

    9
0.0000000000e+00 0.0000000000e+00 0.0000000000e+00
1.5931620020e+00 -2.7594375330e+00 0.0000000000e+00
     1      1      4
 1  1  1     7.6988190883e-10
 1  1  2     2.3296555798e+00
 1  1  3    -7.5831227481e-01
 1  2  1     9.5961266892e-01
 1  2  2    -1.0313138129e-10
 1  2  3    -2.4734958173e-09
 1  3  1    -1.3628542762e-01
 1  3  2    -2.5813775559e-09
 1  3  3     2.2581467815e-09
 2  1  1     9.5961266892e-01
 2  1  2    -1.0313108777e-10
 2  1  3    -2.4734955074e-09
 2  2  1    -1.0313143101e-10
 2  2  2    -5.6916982941e-01
 2  2  3    -1.3650911961e+01
 2  3  1    -2.5813772167e-09
 2  3  2    -1.4246292149e+01
 2  3  3     1.2462433520e+01
 3  1  1    -1.3628542762e-01
 3  1  2    -2.5813765046e-09
 3  1  3     2.2581472879e-09
 3  2  1    -2.5813761654e-09
 3  2  2    -1.4246292149e+01
 3  2  3     1.2462433520e+01
 3  3  1     2.1862411247e-09
 3  3  2     1.2065592365e+01
 3  3  3    -1.0959071699e+01

   10
0.0000000000e+00 0.0000000000e+00 0.0000000000e+00
1.5931620020e+00 -2.7594375330e+00 0.0000000000e+00
     1      1      6
 1  1  1     7.6988190883e-10
 1  1  2     2.3296555798e+00
 1  1  3     7.5831227481e-01
 1  2  1     9.5961266892e-01
 1  2  2    -1.0313138129e-10
 1  2  3     2.4734958173e-09
 1  3  1     1.3628542762e-01
 1  3  2     2.5813775559e-09
 1  3  3     2.2581467815e-09
 2  1  1     9.5961266892e-01
 2  1  2    -1.0313108777e-10
 2  1  3     2.4734955074e-09
 2  2  1    -1.0313143101e-10
 2  2  2    -5.6916982941e-01
 2  2  3     1.3650911961e+01
 2  3  1     2.5813772167e-09
 2  3  2     1.4246292149e+01
 2  3  3     1.2462433520e+01
 3  1  1     1.3628542762e-01
 3  1  2     2.5813765046e-09
 3  1  3     2.2581472879e-09
 3  2  1     2.5813761654e-09
 3  2  2     1.4246292149e+01
 3  2  3     1.2462433520e+01
 3  3  1     2.1862411247e-09
 3  3  2     1.2065592365e+01
 3  3  3     1.0959071699e+01

   11
0.0000000000e+00 0.0000000000e+00 0.0000000000e+00
1.5931620030e+00 2.7594375330e+00 0.0000000000e+00
     1      1      1
 1  1  1    -1.2127388464e+00
 1  1  2     2.2212194859e+00
 1  1  3     0.0000000000e+00
 1  2  1    -4.3740616796e+00
 1  2  2     3.4035410739e+00
 1  2  3     0.0000000000e+00
 1  3  1     0.0000000000e+00
 1  3  2     0.0000000000e+00
 1  3  3     4.1579276985e+00
 2  1  1    -4.3740616796e+00
 2  1  2     3.4035410739e+00
 2  1  3     0.0000000000e+00
 2  2  1    -8.0198209912e+00
 2  2  2     3.1092014225e+00
 2  2  3     0.0000000000e+00
 2  3  1     0.0000000000e+00
 2  3  2     0.0000000000e+00
 2  3  3    -2.4005806762e+00
 3  1  1     0.0000000000e+00
 3  1  2     0.0000000000e+00
 3  1  3     4.1579276985e+00
 3  2  1     0.0000000000e+00
 3  2  2     0.0000000000e+00
 3  2  3    -2.4005806762e+00
 3  3  1     8.4169557209e-01
 3  3  2    -4.8595316517e-01
 3  3  3     0.0000000000e+00

   12
0.0000000000e+00 0.0000000000e+00 0.0000000000e+00
4.7794860070e+00 -2.7594375330e+00 0.0000000000e+00
     1      1      4
 1  1  1     0.0000000000e+00
 1  1  2     0.0000000000e+00
 1  1  3    -1.3378804011e+00
 1  2  1     0.0000000000e+00
 1  2  2     0.0000000000e+00
 1  2  3    -2.4241902414e-10
 1  3  1     7.2013190712e-01
 1  3  2     1.3048526163e-10
 1  3  3     0.0000000000e+00
 2  1  1     0.0000000000e+00
 2  1  2     0.0000000000e+00
 2  1  3    -2.4241902414e-10
 2  2  1     0.0000000000e+00
 2  2  2     0.0000000000e+00
 2  2  3    -1.3378804011e+00
 2  3  1     1.3048526163e-10
 2  3  2     7.2013190711e-01
 2  3  3     0.0000000000e+00
 3  1  1     7.2013190712e-01
 3  1  2     1.3048526163e-10
 3  1  3     0.0000000000e+00
 3  2  1     1.3048526163e-10
 3  2  2     7.2013190711e-01
 3  2  3     0.0000000000e+00
 3  3  1     0.0000000000e+00
 3  3  2     0.0000000000e+00
 3  3  3    -7.0710559697e-02

   13
0.0000000000e+00 0.0000000000e+00 0.0000000000e+00
4.7794860070e+00 -2.7594375330e+00 0.0000000000e+00
     1      1      6
 1  1  1     0.0000000000e+00
 1  1  2     0.0000000000e+00
 1  1  3     1.3378804011e+00
 1  2  1     0.0000000000e+00
 1  2  2     0.0000000000e+00
 1  2  3     2.4241887777e-10
 1  3  1    -7.2013190712e-01
 1  3  2    -1.3048510290e-10
 1  3  3     0.0000000000e+00
 2  1  1     0.0000000000e+00
 2  1  2     0.0000000000e+00
 2  1  3     2.4241887777e-10
 2  2  1     0.0000000000e+00
 2  2  2     0.0000000000e+00
 2  2  3     1.3378804011e+00
 2  3  1    -1.3048510290e-10
 2  3  2    -7.2013190711e-01
 2  3  3     0.0000000000e+00
 3  1  1    -7.2013190712e-01
 3  1  2    -1.3048518285e-10
 3  1  3     0.0000000000e+00
 3  2  1    -1.3048518285e-10
 3  2  2    -7.2013190711e-01
 3  2  3     0.0000000000e+00
 3  3  1     0.0000000000e+00
 3  3  2     0.0000000000e+00
 3  3  3     7.0710559697e-02

   14
0.0000000000e+00 0.0000000000e+00 0.0000000000e+00
0.0000000000e+00 0.0000000000e+00 -1.4406913370e+01
     1      1      5
 1  1  1     0.0000000000e+00
 1  1  2     0.0000000000e+00
 1  1  3    -2.7417800536e-03
 1  2  1     0.0000000000e+00
 1  2  2     0.0000000000e+00
 1  2  3    -4.9680019464e-13
 1  3  1    -2.7199973386e-03
 1  3  2    -4.9285294693e-13
 1  3  3     0.0000000000e+00
 2  1  1     0.0000000000e+00
 2  1  2     0.0000000000e+00
 2  1  3    -4.9680019464e-13
 2  2  1     0.0000000000e+00
 2  2  2     0.0000000000e+00
 2  2  3    -2.7417800536e-03
 2  3  1    -4.9285294693e-13
 2  3  2    -2.7199973385e-03
 2  3  3     0.0000000000e+00
 3  1  1    -2.7199973386e-03
 3  1  2    -4.9285324891e-13
 3  1  3     0.0000000000e+00
 3  2  1    -4.9285324891e-13
 3  2  2    -2.7199973385e-03
 3  2  3     0.0000000000e+00
 3  3  1     0.0000000000e+00
 3  3  2     0.0000000000e+00
 3  3  3    -6.1663066309e-03

   15
0.0000000000e+00 0.0000000000e+00 0.0000000000e+00
0.0000000000e+00 0.0000000000e+00 0.0000000000e+00
     1      3      1
 1  1  1     0.0000000000e+00
 1  1  2     0.0000000000e+00
 1  1  3     2.7199973386e-03
 1  2  1     0.0000000000e+00
 1  2  2     0.0000000000e+00
 1  2  3     4.9285354648e-13
 1  3  1     2.7417800536e-03
 1  3  2     4.9680049459e-13
 1  3  3     0.0000000000e+00
 2  1  1     0.0000000000e+00
 2  1  2     0.0000000000e+00
 2  1  3     4.9285354648e-13
 2  2  1     0.0000000000e+00
 2  2  2     0.0000000000e+00
 2  2  3     2.7199973385e-03
 2  3  1     4.9680049459e-13
 2  3  2     2.7417800536e-03
 2  3  3     0.0000000000e+00
 3  1  1     2.7199973386e-03
 3  1  2     4.9285354648e-13
 3  1  3     0.0000000000e+00
 3  2  1     4.9285354648e-13
 3  2  2     2.7199973385e-03
 3  2  3     0.0000000000e+00
 3  3  1     0.0000000000e+00
 3  3  2     0.0000000000e+00
 3  3  3     6.1663066309e-03

   16
0.0000000000e+00 0.0000000000e+00 0.0000000000e+00
0.0000000000e+00 0.0000000000e+00 0.0000000000e+00
     1      3      3
 1  1  1     0.0000000000e+00
 1  1  2     0.0000000000e+00
 1  1  3    -5.8531285199e-04
 1  2  1     0.0000000000e+00
 1  2  2     0.0000000000e+00
 1  2  3    -1.0605654308e-13
 1  3  1    -5.8531285199e-04
 1  3  2    -1.0605654308e-13
 1  3  3     0.0000000000e+00
 2  1  1     0.0000000000e+00
 2  1  2     0.0000000000e+00
 2  1  3    -1.0605654308e-13
 2  2  1     0.0000000000e+00
 2  2  2     0.0000000000e+00
 2  2  3    -5.8531285198e-04
 2  3  1    -1.0605654308e-13
 2  3  2    -5.8531285198e-04
 2  3  3     0.0000000000e+00
 3  1  1    -2.2481071019e-03
 3  1  2    -4.0734876551e-13
 3  1  3     0.0000000000e+00
 3  2  1    -4.0734876551e-13
 3  2  2    -2.2481071019e-03
 3  2  3     0.0000000000e+00
 3  3  1     0.0000000000e+00
 3  3  2     0.0000000000e+00
 3  3  3     8.7675105209e-03

   17
0.0000000000e+00 0.0000000000e+00 0.0000000000e+00
0.0000000000e+00 0.0000000000e+00 0.0000000000e+00
     1      3      4
 1  1  1     2.9489106504e-03
 1  1  2    -1.8421852734e-03
 1  1  3    -1.5979619333e-03
 1  2  1    -1.7117963976e-03
 1  2  2    -3.1960990195e-03
 1  2  3     8.1610024632e-04
 1  3  1     1.6364427493e-03
 1  3  2    -3.2146275104e-03
 1  3  3    -3.8459253724e-13
 2  1  1     1.8421892882e-03
 2  1  2     2.9595847558e-03
 2  1  3     8.1610024632e-04
 2  2  1     3.1854249134e-03
 2  2  2    -1.6994750160e-03
 2  2  3    -6.5561053963e-04
 2  3  1    -3.2146275104e-03
 2  3  2    -2.0754893661e-03
 2  3  3     2.2204460493e-13
 3  1  1    -7.0014950851e-04
 3  1  2     1.2790943874e-03
 3  1  3     4.4581424124e-03
 3  2  1     1.2790943874e-03
 3  2  2     7.7682146861e-04
 3  2  3    -2.5739097222e-03
 3  3  1     2.2254252318e-03
 3  3  2    -1.2848498568e-03
 3  3  3    -5.5979533800e-03

   18
0.0000000000e+00 0.0000000000e+00 0.0000000000e+00
3.1863240050e+00 0.0000000000e+00 0.0000000000e+00
     1      3      4
 1  1  1    -2.9489106510e-03
 1  1  2    -1.8421852734e-03
 1  1  3    -1.5979619339e-03
 1  2  1    -1.7117963976e-03
 1  2  2     3.1960990189e-03
 1  2  3    -8.1610024655e-04
 1  3  1     1.6364427516e-03
 1  3  2     3.2146275096e-03
 1  3  3     3.8459253732e-13
 2  1  1     1.8421892860e-03
 2  1  2    -2.9595847564e-03
 2  1  3    -8.1610024655e-04
 2  2  1    -3.1854249140e-03
 2  2  2    -1.6994750160e-03
 2  2  3    -6.5561053963e-04
 2  3  1     3.2146275096e-03
 2  3  2    -2.0754893661e-03
 2  3  3     2.2204460493e-13
 3  1  1    -7.0014950944e-04
 3  1  2    -1.2790943871e-03
 3  1  3    -4.4581424134e-03
 3  2  1    -1.2790943871e-03
 3  2  2     7.7682146861e-04
 3  2  3    -2.5739097222e-03
 3  3  1    -2.2254252323e-03
 3  3  2    -1.2848498568e-03
 3  3  3    -5.5979533800e-03

   19
0.0000000000e+00 0.0000000000e+00 0.0000000000e+00
1.5931620020e+00 -2.7594375330e+00 0.0000000000e+00
     1      3      4
 1  1  1     6.1531901394e-13
 1  1  2     3.6751325209e-03
 1  1  3    -1.8443484267e-04
 1  2  1     3.4143547693e-03
 1  2  2     6.1755225982e-13
 1  2  3    -3.7492025127e-13
 1  3  1    -3.9314554244e-03
 1  3  2     6.3281153444e-13
 1  3  3    -8.0467337555e-23
 2  1  1    -3.6936166002e-03
 2  1  2     6.1755104311e-13
 2  1  3    -3.7492020597e-13
 2  2  1     6.1755145119e-13
 2  2  2     3.4081880579e-03
 2  2  3    -2.0691376305e-03
 2  3  1     6.3281135599e-13
 2  3  2     3.4924088086e-03
 2  3  3    -4.4408920985e-13
 3  1  1     1.5153069574e-03
 3  1  2    -2.6067533796e-13
 3  1  3     9.3276602022e-13
 3  2  1    -2.6067526696e-13
 3  2  2    -1.4386349978e-03
 3  2  3     5.1478194443e-03
 3  3  1     4.6562017198e-13
 3  3  2     2.5696997136e-03
 3  3  3    -5.5979533800e-03

   20
0.0000000000e+00 0.0000000000e+00 0.0000000000e+00
4.7794860070e+00 -2.7594375330e+00 0.0000000000e+00
     1      3      4
 1  1  1     0.0000000000e+00
 1  1  2     0.0000000000e+00
 1  1  3     1.2440616248e-03
 1  2  1     0.0000000000e+00
 1  2  2     0.0000000000e+00
 1  2  3     2.2541940579e-13
 1  3  1    -1.4856847787e-03
 1  3  2    -2.6920063550e-13
 1  3  3     0.0000000000e+00
 2  1  1     0.0000000000e+00
 2  1  2     0.0000000000e+00
 2  1  3     2.2541940579e-13
 2  2  1     0.0000000000e+00
 2  2  2     0.0000000000e+00
 2  2  3     1.2440616248e-03
 2  3  1    -2.6920063550e-13
 2  3  2    -1.4856847786e-03
 2  3  3     0.0000000000e+00
 3  1  1    -5.9809403682e-04
 3  1  2    -1.0837244691e-13
 3  1  3     0.0000000000e+00
 3  2  1    -1.0837244691e-13
 3  2  2    -5.9809403681e-04
 3  2  3     0.0000000000e+00
 3  3  1     0.0000000000e+00
 3  3  2     0.0000000000e+00
 3  3  3     1.8610669848e-03

   21
0.0000000000e+00 0.0000000000e+00 0.0000000000e+00
0.0000000000e+00 0.0000000000e+00 0.0000000000e+00
     1      4      1
 1  1  1     5.5022305518e-01
 1  1  2     1.3269626958e+00
 1  1  3    -1.0718790467e+01
 1  2  1     6.4194124017e-01
 1  2  2    -2.1208963711e-01
 1  2  3     6.1098121336e+00
 1  3  1    -1.0427762038e+01
 1  3  2     5.5826594238e+00
 1  3  3     1.0792784020e+01
 2  1  1     1.3269626958e+00
 2  1  2     9.7440232797e-01
 2  1  3     6.1098121336e+00
 2  2  1    -2.1208963711e-01
 2  2  2    -1.5221841154e+00
 2  2  3    -3.6637871080e+00
 2  3  1     5.5826594238e+00
 2  3  2    -3.9814621963e+00
 2  3  3    -6.2312167600e+00
 3  1  1    -1.0718790467e+01
 3  1  2     6.1098121336e+00
 3  1  3     1.0449109499e+01
 3  2  1     6.1098121336e+00
 3  2  2    -3.6637871080e+00
 3  2  3    -6.0327961824e+00
 3  3  1     1.0792784020e+01
 3  3  2    -6.2312167600e+00
 3  3  3    -1.0959071699e+01

   22
0.0000000000e+00 0.0000000000e+00 0.0000000000e+00
0.0000000000e+00 0.0000000000e+00 0.0000000000e+00
     1      4      3
 1  1  1     2.9489106504e-03
 1  1  2    -1.7117963976e-03
 1  1  3     1.6364427493e-03
 1  2  1    -1.8421852734e-03
 1  2  2    -3.1960990195e-03
 1  2  3    -3.2146275104e-03
 1  3  1    -1.5979619333e-03
 1  3  2     8.1610024632e-04
 1  3  3    -3.8459253724e-13
 2  1  1     1.8421892882e-03
 2  1  2     3.1854249134e-03
 2  1  3    -3.2146275104e-03
 2  2  1     2.9595847558e-03
 2  2  2    -1.6994750160e-03
 2  2  3    -2.0754893661e-03
 2  3  1     8.1610024632e-04
 2  3  2    -6.5561053963e-04
 2  3  3     2.2204460493e-13
 3  1  1    -7.0014950851e-04
 3  1  2     1.2790943874e-03
 3  1  3     2.2254252318e-03
 3  2  1     1.2790943874e-03
 3  2  2     7.7682146861e-04
 3  2  3    -1.2848498568e-03
 3  3  1     4.4581424124e-03
 3  3  2    -2.5739097222e-03
 3  3  3    -5.5979533800e-03

   23
0.0000000000e+00 0.0000000000e+00 0.0000000000e+00
0.0000000000e+00 0.0000000000e+00 0.0000000000e+00
     1      4      4
 1  1  1     3.3044128520e-01
 1  1  2    -4.7065635418e-01
 1  1  3     1.3191998596e+01
 1  2  1    -4.7065635418e-01
 1  2  2     1.8653972322e-01
 1  2  3    -7.1561077603e+00
 1  3  1     1.3191998596e+01
 1  3  2    -7.1561077603e+00
 1  3  3    -1.3023719877e+01
 2  1  1    -5.3681431073e-01
 2  1  2     7.1950781184e-02
 2  1  3    -7.1561077603e+00
 2  2  1     7.1950781184e-02
 2  2  2     2.3833518625e-01
 2  2  3     4.9288371140e+00
 2  3  1    -7.1561077603e+00
 2  3  2     4.9288371140e+00
 2  3  3     7.5192481774e+00
 3  1  1     1.1291037773e+01
 3  1  2    -6.2561994813e+00
 3  1  3    -1.2497890575e+01
 3  2  1    -6.2561994813e+00
 3  2  2     4.0670008649e+00
 3  2  3     7.2156604885e+00
 3  3  1    -1.2497890575e+01
 3  3  2     7.2156604885e+00
 3  3  3     1.4201449789e+01

   24
0.0000000000e+00 0.0000000000e+00 0.0000000000e+00
0.0000000000e+00 0.0000000000e+00 0.0000000000e+00
     1      4      6
 1  1  1    -4.0199341348e-01
 1  1  2     6.4601787291e-02
 1  1  3    -1.5412242799e-01
 1  2  1     6.4601787291e-02
 1  2  2     3.9522877550e-02
 1  2  3    -2.0061251727e-01
 1  3  1     1.5412242799e-01
 1  3  2     2.0061251727e-01
 1  3  3     8.4490152335e-01
 2  1  1    -8.5671531442e-02
 2  1  2    -2.2075814543e-01
 2  1  3    -2.0061251727e-01
 2  2  1    -2.2075814543e-01
 2  2  2     2.9494399288e-01
 2  2  3    -3.8576980952e-01
 2  3  1     2.0061251727e-01
 2  3  2     3.8576980952e-01
 2  3  3    -4.8780412200e-01
 3  1  1     0.0000000000e+00
 3  1  2     0.0000000000e+00
 3  1  3     6.4792913871e-01
 3  2  1     0.0000000000e+00
 3  2  2     0.0000000000e+00
 3  2  3    -3.7408206269e-01
 3  3  1     6.4792913871e-01
 3  3  2    -3.7408206269e-01
 3  3  3     0.0000000000e+00

   25
0.0000000000e+00 0.0000000000e+00 0.0000000000e+00
-3.1863240050e+00 0.0000000000e+00 0.0000000000e+00
     1      4      1
 1  1  1     3.1777406455e-10
 1  1  2     1.5058082017e+00
 1  1  3    -1.2084175441e-01
 1  2  1    -1.2578609198e+00
 1  2  2    -6.1980615581e-02
 1  2  3    -8.4201272396e-02
 1  3  1    -1.2965396075e+00
 1  3  2     4.1780427948e-01
 1  3  3     2.9498908475e-01
 2  1  1     1.5058082018e+00
 2  1  2     5.8355117988e-12
 2  1  3     2.2305976330e-01
 2  2  1     6.1980615593e-02
 2  2  2     3.2205462809e-02
 2  2  3    -2.7767927159e-01
 2  3  1    -4.1780428002e-01
 2  3  2    -1.4968772113e+00
 2  3  3    -1.5936364226e+00
 3  1  1    -1.2084175446e-01
 3  1  2    -2.2305976340e-01
 3  1  3    -4.6151540218e-10
 3  2  1     8.4201272295e-02
 3  2  2    -2.7767927159e-01
 3  2  3    -2.5470460233e+00
 3  3  1    -2.9498908533e-01
 3  3  2    -1.5936364226e+00
 3  3  3    -2.4275626289e+00

   26
0.0000000000e+00 0.0000000000e+00 0.0000000000e+00
3.1863240050e+00 0.0000000000e+00 0.0000000000e+00
     1      4      4
 1  1  1    -1.9567424822e-10
 1  1  2    -1.4714044683e-01
 1  1  3    -7.8435483220e-01
 1  2  1    -1.4714044673e-01
 1  2  2     2.2545277875e-12
 1  2  3     2.2820223089e-01
 1  3  1    -7.8435483214e-01
 1  3  2    -2.2820223072e-01
 1  3  3     1.1422352607e-11
 2  1  1    -7.8562091142e-01
 2  1  2    -2.6924961994e-01
 2  1  3    -3.8368960392e-01
 2  2  1     2.6924961995e-01
 2  2  2     1.2442458060e-02
 2  2  3     4.5016120145e-01
 2  3  1     3.8368960408e-01
 2  3  2     4.5016120145e-01
 2  3  3     6.3038541393e-02
 3  1  1     3.6829768643e-01
 3  1  2    -4.1973260751e-01
 3  1  3    -6.4819556634e-01
 3  2  1     4.1973260747e-01
 3  2  2    -1.2651716033e-01
 3  2  3     6.1096400719e-01
 3  3  1     6.4819556656e-01
 3  3  2     6.1096400719e-01
 3  3  3     8.8990497205e-01

   27
0.0000000000e+00 0.0000000000e+00 0.0000000000e+00
3.1863240050e+00 0.0000000000e+00 0.0000000000e+00
     1      4      6
 1  1  1    -1.8664398136e-10
 1  1  2    -2.0664742129e-01
 1  1  3    -4.4658729255e-01
 1  2  1    -2.0664742094e-01
 1  2  2     1.8558493251e-10
 1  2  3     2.0568837164e-01
 1  3  1     4.4658729287e-01
 1  3  2     2.0568837175e-01
 1  3  3     3.3682029111e-11
 2  1  1    -6.1677004490e-01
 2  1  2    -9.5943504290e-01
 2  1  3     7.0126970257e-01
 2  2  1     9.5943504328e-01
 2  2  2     1.0242201281e+00
 2  2  3    -2.8650047969e-01
 2  3  1     7.0126970267e-01
 2  3  2     2.8650047969e-01
 2  3  3     1.8588692359e-01
 3  1  1     9.3399648800e-11
 3  1  2     2.5773051444e-01
 3  1  3     2.9176391828e-01
 3  2  1     2.5773051444e-01
 3  2  2     0.0000000000e+00
 3  2  3     8.0541076227e-02
 3  3  1    -2.9176391825e-01
 3  3  2     8.0541076227e-02
 3  3  3     0.0000000000e+00

   28
0.0000000000e+00 0.0000000000e+00 0.0000000000e+00
-1.5931620020e+00 2.7594375330e+00 0.0000000000e+00
     1      4      1
 1  1  1    -4.0061726174e-01
 1  1  2    -1.6099963058e-01
 1  1  3    -2.9859738269e-01
 1  2  1     1.2745117174e+00
 1  2  2    -9.6233195085e-01
 1  2  3     1.2043250352e-01
 1  3  1    -1.4467928104e+00
 1  3  2    -5.0455300714e-01
 1  3  3     1.5276241690e+00
 2  1  1    -5.3646055292e-02
 2  1  2     1.4620660238e+00
 2  1  3    -1.8682853217e-01
 2  2  1    -9.0035133527e-01
 2  2  2    -6.6168398924e-01
 2  2  3    -9.9923643356e-02
 2  3  1     3.3105555236e-01
 2  3  2    -1.3466240084e+00
 2  3  3     5.4135016984e-01
 3  1  1    -1.7834240197e-01
 3  1  2     5.1003257995e-02
 3  1  3     2.2058065610e+00
 3  2  1    -2.5625777770e-01
 3  2  2    -2.2017862409e-01
 3  2  3     1.2735230116e+00
 3  3  1     1.2326350841e+00
 3  3  2     1.0522862528e+00
 3  3  3    -2.4275626289e+00

   29
0.0000000000e+00 0.0000000000e+00 0.0000000000e+00
1.5931620020e+00 -2.7594375330e+00 0.0000000000e+00
     1      4      4
 1  1  1     2.2572398548e-01
 1  1  2    -5.6923588604e-01
 1  1  3     2.0886020081e-01
 1  2  1    -1.0288186433e-01
 1  2  2     4.4386819674e-01
 1  2  3     1.8974336245e-01
 1  3  1     7.4204185684e-02
 1  3  2     8.7937888387e-01
 1  3  3    -5.4592978270e-02
 2  1  1    -1.6818642969e-02
 2  1  2    -2.4369691543e-01
 2  1  3     8.0163519725e-01
 2  2  1     2.5552704513e-02
 2  2  2     4.0340786960e-01
 2  2  3    -5.4305383133e-01
 2  3  1     2.6748704907e-01
 2  3  2    -4.0839781618e-01
 2  3  3    -3.1519270696e-02
 3  1  1    -2.8134487205e-03
 3  1  2     2.0547149380e-01
 3  1  3    -8.5320813421e-01
 3  2  1    -6.3399372118e-01
 3  2  2     2.4459397473e-01
 3  2  3     2.5587182357e-01
 3  3  1    -2.0501256796e-01
 3  3  2    -8.6683583076e-01
 3  3  3     8.8990497205e-01

   30
0.0000000000e+00 0.0000000000e+00 0.0000000000e+00
1.5931620020e+00 -2.7594375330e+00 0.0000000000e+00
     1      4      6
 1  1  1    -4.4223489787e-01
 1  1  2    -1.4979282909e+00
 1  1  3    -7.1924654910e-01
 1  2  1     1.6386195051e-01
 1  2  2     8.9372774776e-02
 1  2  3     5.4384980748e-01
 1  3  1    -6.6202183262e-02
 1  3  2     4.0521056075e-01
 1  3  3    -1.6098279808e-01
 2  1  1    -4.6197185835e-01
 2  1  2    -7.4552135763e-01
 2  1  3     4.8268476554e-02
 2  2  1     2.1391368546e-01
 2  2  2     2.5824681666e-01
 2  2  3    -1.3841223189e-02
 2  3  1    -9.0370770183e-02
 2  3  2     7.9928995571e-01
 2  3  3    -9.2943461797e-02
 3  1  1    -2.2320117279e-01
 3  1  2     1.2886525726e-01
 3  1  3     7.6131341018e-02
 3  2  1     1.2886525726e-01
 3  2  2     2.2320117284e-01
 3  2  3    -2.9294550324e-01
 3  3  1    -2.1563257715e-01
 3  3  2     2.1240442701e-01
 3  3  3     0.0000000000e+00

   31
0.0000000000e+00 0.0000000000e+00 0.0000000000e+00
-1.5931620030e+00 -2.7594375330e+00 0.0000000000e+00
     1      4      1
 1  1  1     2.0575163107e-01
 1  1  2     1.3487097814e-01
 1  1  3    -3.9864539585e-01
 1  2  1     5.3330748949e-02
 1  2  2     1.9965045149e-01
 1  2  3    -1.0026640111e-01
 1  3  1     3.4143823465e-01
 1  3  2     1.9093136012e-01
 1  3  3    -3.5758658665e-01
 2  1  1    -1.9406119612e-02
 2  1  2     7.3666499600e-02
 2  1  3    -1.0026640111e-01
 2  2  1    -6.7565320173e-02
 2  2  2    -2.1465288188e-01
 2  2  3    -5.1442306305e-01
 2  3  1     1.9093136012e-01
 2  3  2     5.6190677878e-01
 2  3  3     2.0645271208e-01
 3  1  1    -3.2602565664e-01
 3  1  2     8.4742372294e-02
 3  1  3     7.3485780536e-01
 3  2  1     8.4742372294e-02
 3  2  2    -2.2817359371e-01
 3  2  3    -4.2427035178e-01
 3  3  1     1.0019752276e-02
 3  3  2    -5.7849066741e-03
 3  3  3    -3.7838941953e-01

   32
0.0000000000e+00 0.0000000000e+00 0.0000000000e+00
-1.5931620030e+00 -2.7594375330e+00 0.0000000000e+00
     1      4      4
 1  1  1    -7.9277196414e-02
 1  1  2     1.8823186863e-01
 1  1  3     2.1661276935e-01
 1  2  1    -3.1719919156e-02
 1  2  2     3.6471739783e-01
 1  2  3    -1.2854961484e-02
 1  3  1     7.6549263710e-02
 1  3  2    -9.9106048464e-02
 1  3  3     2.3340029231e-01
 2  1  1    -2.6048391242e-01
 2  1  2    -3.1513461312e-02
 2  1  3    -1.2854961484e-02
 2  2  1    -4.1248113286e-01
 2  2  2     9.5684935207e-02
 2  2  3     2.0176913836e-01
 2  3  1    -9.9106048464e-02
 2  3  2    -3.7888543765e-02
 2  3  3    -1.3475372161e-01
 3  1  1     8.5072372189e-03
 3  1  2    -1.1087107926e-01
 3  1  3    -3.6513836167e-01
 3  2  1    -1.1087107926e-01
 3  2  2    -1.1951565762e-01