   0.17204E+01   0.25660E-03   0.11052E-04
   0.34408E+01   0.10473E-02   0.44243E-04
   0.51613E+01   0.25782E-02   0.10460E-03
   0.68817E+01   0.50713E-02   0.19376E-03
   0.86021E+01   0.79465E-02   0.27806E-03
   0.10323E+02   0.12211E-01   0.38416E-03
   0.12043E+02   0.18752E-01   0.50384E-03
   0.13763E+02   0.29472E-01   0.65351E-03
   0.15484E+02   0.46656E-01   0.78107E-03
   0.17204E+02   0.71625E-01   0.83045E-03
   0.18925E+02   0.11886E+00   0.80637E-03
   0.20645E+02   0.24398E+00   0.60949E-03
   0.22365E+02   0.19201E+00   0.45530E-03
   0.24086E+02   0.17698E+00   0.40233E-03
   0.25806E+02   0.10975E+00   0.34748E-03
   0.27527E+02   0.93860E-01   0.37929E-03
   0.29247E+02   0.85565E-01   0.45351E-03
   0.30968E+02   0.68937E-01   0.57530E-03
   0.32688E+02   0.93413E-01   0.81199E-03
   0.34408E+02   0.19311E+00   0.12628E-02
   0.36129E+02   0.67441E-01   0.53110E-03
   0.37849E+02   0.41936E-01   0.34002E-03
   0.39570E+02   0.27099E-01   0.20479E-03
   0.41290E+02   0.15807E-01   0.87712E-04
   0.43011E+02   0.57137E-02   0.74155E-05
   0.44731E+02   0.00000E+00   0.00000E+00
   0.46451E+02   0.00000E+00   0.00000E+00
   0.48172E+02   0.00000E+00   0.00000E+00
   0.49892E+02   0.00000E+00   0.00000E+00
   0.51613E+02   0.00000E+00   0.00000E+00
   0.53333E+02   0.00000E+00   0.00000E+00
   0.55053E+02   0.00000E+00   0.00000E+00
   0.56774E+02   0.00000E+00   0.00000E+00
   0.58494E+02   0.00000E+00   0.00000E+00
   0.60215E+02   0.00000E+00   0.00000E+00
   0.61935E+02   0.00000E+00   0.00000E+00
   0.63656E+02   0.00000E+00   0.00000E+00
   0.65376E+02   0.00000E+00   0.00000E+00
   0.67096E+02   0.00000E+00   0.00000E+00
   0.68817E+02   0.00000E+00   0.00000E+00
   0.70537E+02   0.00000E+00   0.00000E+00
   0.72258E+02   0.00000E+00   0.00000E+00
   0.73978E+02   0.00000E+00   0.00000E+00
   0.75698E+02   0.00000E+00   0.00000E+00
   0.77419E+02   0.24304E-03   0.60317E-02
   0.79139E+02   0.30138E-03   0.86708E-02
   0.80860E+02   0.38580E-03   0.13049E-01
   0.82580E+02   0.42259E-03   0.16977E-01
   0.84301E+02   0.43824E-03   0.21301E-01
   0.86021E+02   0.41780E-03   0.24982E-01
   0.87741E+02   0.39458E-03   0.29316E-01
   0.89462E+02   0.36399E-03   0.34533E-01
   0.91182E+02   0.33263E-03   0.42891E-01
   0.92903E+02   0.29366E-03   0.57182E-01
   0.94623E+02   0.25292E-03   0.56091E-01
   0.96344E+02   0.22243E-03   0.56222E-01
   0.98064E+02   0.19629E-03   0.55851E-01
   0.99784E+02   0.17290E-03   0.55643E-01
   0.10150E+03   0.15719E-03   0.56246E-01
   0.10323E+03   0.13954E-03   0.55655E-01
   0.10495E+03   0.12832E-03   0.55141E-01
   0.10667E+03   0.11672E-03   0.55086E-01
   0.10839E+03   0.10607E-03   0.55905E-01
   0.11011E+03   0.99566E-04   0.55578E-01
   0.11183E+03   0.88562E-04   0.53977E-01
   0.11355E+03   0.79233E-04   0.49828E-01
   0.11527E+03   0.62053E-04   0.31581E-01
   0.11699E+03   0.54762E-04   0.29430E-01
   0.11871E+03   0.49828E-04   0.28885E-01
   0.12043E+03   0.44451E-04   0.27338E-01
   0.12215E+03   0.40801E-04   0.25546E-01
   0.12387E+03   0.35777E-04   0.23946E-01
   0.12559E+03   0.32772E-04   0.21704E-01
   0.12731E+03   0.28614E-04   0.19570E-01
   0.12903E+03   0.22877E-04   0.15370E-01
   0.13075E+03   0.15024E-04   0.10363E-01
   0.13247E+03   0.86987E-05   0.56599E-02
   0.13419E+03   0.93442E-05   0.59005E-02
   0.13591E+03   0.16752E-04   0.93372E-02
   0.13763E+03   0.31792E-04   0.15792E-01
   0.13935E+03   0.53014E-04   0.22363E-01
   0.14107E+03   0.72770E-04   0.27356E-01
   0.14279E+03   0.10479E-03   0.33721E-01
   0.14452E+03   0.15639E-03   0.41518E-01
   0.14624E+03   0.22974E-03   0.50660E-01
   0.14796E+03   0.34793E-03   0.61835E-01
   0.14968E+03   0.44852E-03   0.60873E-01
   0.15140E+03   0.68657E-03   0.68459E-01
   0.15312E+03   0.10976E-02   0.76991E-01
   0.15484E+03   0.15014E-02   0.80896E-01
   0.15656E+03   0.15829E-04   0.43317E-03
   0.15828E+03   0.00000E+00   0.00000E+00
   0.16000E+03   0.00000E+00   0.00000E+00
   0.16172E+03   0.00000E+00   0.00000E+00
   0.16344E+03   0.00000E+00   0.00000E+00
   0.16516E+03   0.00000E+00   0.00000E+00
   0.16688E+03   0.00000E+00   0.00000E+00
   0.16860E+03   0.00000E+00   0.00000E+00
   0.17032E+03   0.00000E+00   0.00000E+00
   0.17204E+03   0.00000E+00   0.00000E+00
