  350

    1
0.0000000000e+00 0.0000000000e+00 0.0000000000e+00
0.0000000000e+00 0.0000000000e+00 0.0000000000e+00
     1      1      1
 1  1  1     0.0000000000e+00
 1  1  2     0.0000000000e+00
 1  1  3     0.0000000000e+00
 1  2  1     0.0000000000e+00
 1  2  2     0.0000000000e+00
 1  2  3     0.0000000000e+00
 1  3  1     0.0000000000e+00
 1  3  2     0.0000000000e+00
 1  3  3     0.0000000000e+00
 2  1  1     0.0000000000e+00
 2  1  2     0.0000000000e+00
 2  1  3     0.0000000000e+00
 2  2  1     0.0000000000e+00
 2  2  2     0.0000000000e+00
 2  2  3     0.0000000000e+00
 2  3  1     0.0000000000e+00
 2  3  2     0.0000000000e+00
 2  3  3     0.0000000000e+00
 3  1  1     0.0000000000e+00
 3  1  2     0.0000000000e+00
 3  1  3     0.0000000000e+00
 3  2  1     0.0000000000e+00
 3  2  2     0.0000000000e+00
 3  2  3     0.0000000000e+00
 3  3  1     0.0000000000e+00
 3  3  2     0.0000000000e+00
 3  3  3     0.0000000000e+00

    2
0.0000000000e+00 0.0000000000e+00 0.0000000000e+00
-2.3982708082e+00 0.0000000000e+00 2.3982708082e+00
     1      1      1
 1  1  1     1.4141067939e-01
 1  1  2     0.0000000000e+00
 1  1  3    -2.4060123298e-01
 1  2  1     0.0000000000e+00
 1  2  2    -9.8579319450e-02
 1  2  3     0.0000000000e+00
 1  3  1    -3.1745805181e-01
 1  3  2     0.0000000000e+00
 1  3  3     3.1745805181e-01
 2  1  1     0.0000000000e+00
 2  1  2    -9.8579319450e-02
 2  1  3     0.0000000000e+00
 2  2  1    -9.5105865098e-02
 2  2  2     0.0000000000e+00
 2  2  3     9.5105865098e-02
 2  3  1     0.0000000000e+00
 2  3  2     9.8579319450e-02
 2  3  3     0.0000000000e+00
 3  1  1    -3.1745805181e-01
 3  1  2     0.0000000000e+00
 3  1  3     3.1745805181e-01
 3  2  1     0.0000000000e+00
 3  2  2     9.8579319450e-02
 3  2  3     0.0000000000e+00
 3  3  1     2.4060123298e-01
 3  3  2     0.0000000000e+00
 3  3  3    -1.4141067939e-01

    3
0.0000000000e+00 0.0000000000e+00 0.0000000000e+00
2.3982708082e+00 0.0000000000e+00 -2.3982708082e+00
     1      1      1
 1  1  1    -1.4141067939e-01
 1  1  2     0.0000000000e+00
 1  1  3     2.4060123298e-01
 1  2  1     0.0000000000e+00
 1  2  2     9.8579319450e-02
 1  2  3     0.0000000000e+00
 1  3  1     3.1745805181e-01
 1  3  2     0.0000000000e+00
 1  3  3    -3.1745805181e-01
 2  1  1     0.0000000000e+00
 2  1  2     9.8579319450e-02
 2  1  3     0.0000000000e+00
 2  2  1     9.5105865098e-02
 2  2  2     0.0000000000e+00
 2  2  3    -9.5105865098e-02
 2  3  1     0.0000000000e+00
 2  3  2    -9.8579319450e-02
 2  3  3     0.0000000000e+00
 3  1  1     3.1745805181e-01
 3  1  2     0.0000000000e+00
 3  1  3    -3.1745805181e-01
 3  2  1     0.0000000000e+00
 3  2  2    -9.8579319450e-02
 3  2  3     0.0000000000e+00
 3  3  1    -2.4060123298e-01
 3  3  2     0.0000000000e+00
 3  3  3     1.4141067939e-01

    4
0.0000000000e+00 0.0000000000e+00 0.0000000000e+00
2.3982708082e+00 0.0000000000e+00 -2.3982708082e+00
     1      1      2
 1  1  1     0.0000000000e+00
 1  1  2     1.1974227483e-01
 1  1  3     0.0000000000e+00
 1  2  1    -3.0394400101e-02
 1  2  2     0.0000000000e+00
 1  2  3     0.0000000000e+00
 1  3  1     0.0000000000e+00
 1  3  2     0.0000000000e+00
 1  3  3     0.0000000000e+00
 2  1  1    -3.0394400101e-02
 2  1  2     0.0000000000e+00
 2  1  3     0.0000000000e+00
 2  2  1     0.0000000000e+00
 2  2  2    -2.7390084041e+00
 2  2  3     0.0000000000e+00
 2  3  1     0.0000000000e+00
 2  3  2     0.0000000000e+00
 2  3  3    -3.0394400101e-02
 3  1  1     0.0000000000e+00
 3  1  2     0.0000000000e+00
 3  1  3     0.0000000000e+00
 3  2  1     0.0000000000e+00
 3  2  2     0.0000000000e+00
 3  2  3    -3.0394400101e-02
 3  3  1     0.0000000000e+00
 3  3  2     1.1974227483e-01
 3  3  3     0.0000000000e+00

    5
0.0000000000e+00 0.0000000000e+00 0.0000000000e+00
0.0000000000e+00 2.3982708082e+00 2.3982708082e+00
     1      1      1
 1  1  1     0.0000000000e+00
 1  1  2     9.5105865098e-02
 1  1  3     9.5105865098e-02
 1  2  1     9.8579319450e-02
 1  2  2     0.0000000000e+00
 1  2  3     0.0000000000e+00
 1  3  1     9.8579319450e-02
 1  3  2     0.0000000000e+00
 1  3  3     0.0000000000e+00
 2  1  1     9.8579319450e-02
 2  1  2     0.0000000000e+00
 2  1  3     0.0000000000e+00
 2  2  1     0.0000000000e+00
 2  2  2    -1.4141067939e-01
 2  2  3    -2.4060123298e-01
 2  3  1     0.0000000000e+00
 2  3  2    -3.1745805181e-01
 2  3  3    -3.1745805181e-01
 3  1  1     9.8579319450e-02
 3  1  2     0.0000000000e+00
 3  1  3     0.0000000000e+00
 3  2  1     0.0000000000e+00
 3  2  2    -3.1745805181e-01
 3  2  3    -3.1745805181e-01
 3  3  1     0.0000000000e+00
 3  3  2    -2.4060123298e-01
 3  3  3    -1.4141067939e-01

    6
0.0000000000e+00 0.0000000000e+00 0.0000000000e+00
2.3982708082e+00 2.3982708082e+00 -5.0320511507e-16
     1      1      1
 1  1  1    -1.4141067939e-01
 1  1  2    -2.4060123298e-01
 1  1  3     0.0000000000e+00
 1  2  1    -3.1745805181e-01
 1  2  2    -3.1745805181e-01
 1  2  3     0.0000000000e+00
 1  3  1     0.0000000000e+00
 1  3  2     0.0000000000e+00
 1  3  3     9.8579319450e-02
 2  1  1    -3.1745805181e-01
 2  1  2    -3.1745805181e-01
 2  1  3     0.0000000000e+00
 2  2  1    -2.4060123298e-01
 2  2  2    -1.4141067939e-01
 2  2  3     0.0000000000e+00
 2  3  1     0.0000000000e+00
 2  3  2     0.0000000000e+00
 2  3  3     9.8579319450e-02
 3  1  1     0.0000000000e+00
 3  1  2     0.0000000000e+00
 3  1  3     9.8579319450e-02
 3  2  1     0.0000000000e+00
 3  2  2     0.0000000000e+00
 3  2  3     9.8579319450e-02
 3  3  1     9.5105865098e-02
 3  3  2     9.5105865098e-02
 3  3  3     0.0000000000e+00

    7
0.0000000000e+00 0.0000000000e+00 0.0000000000e+00
0.0000000000e+00 -2.3982708082e+00 -2.3982708082e+00
     1      1      1
 1  1  1     0.0000000000e+00
 1  1  2    -9.5105865098e-02
 1  1  3    -9.5105865098e-02
 1  2  1    -9.8579319450e-02
 1  2  2     0.0000000000e+00
 1  2  3     0.0000000000e+00
 1  3  1    -9.8579319450e-02
 1  3  2     0.0000000000e+00
 1  3  3     0.0000000000e+00
 2  1  1    -9.8579319450e-02
 2  1  2     0.0000000000e+00
 2  1  3     0.0000000000e+00
 2  2  1     0.0000000000e+00
 2  2  2     1.4141067939e-01
 2  2  3     2.4060123298e-01
 2  3  1     0.0000000000e+00
 2  3  2     3.1745805181e-01
 2  3  3     3.1745805181e-01
 3  1  1    -9.8579319450e-02
 3  1  2     0.0000000000e+00
 3  1  3     0.0000000000e+00
 3  2  1     0.0000000000e+00
 3  2  2     3.1745805181e-01
 3  2  3     3.1745805181e-01
 3  3  1     0.0000000000e+00
 3  3  2     2.4060123298e-01
 3  3  3     1.4141067939e-01

    8
0.0000000000e+00 0.0000000000e+00 0.0000000000e+00
0.0000000000e+00 -2.3982708082e+00 -2.3982708082e+00
     1      1      2
 1  1  1     2.7390084041e+00
 1  1  2     0.0000000000e+00
 1  1  3     0.0000000000e+00
 1  2  1     0.0000000000e+00
 1  2  2     3.0394400101e-02
 1  2  3     0.0000000000e+00
 1  3  1     0.0000000000e+00
 1  3  2     0.0000000000e+00
 1  3  3     3.0394400101e-02
 2  1  1     0.0000000000e+00
 2  1  2     3.0394400101e-02
 2  1  3     0.0000000000e+00
 2  2  1    -1.1974227483e-01
 2  2  2     0.0000000000e+00
 2  2  3     0.0000000000e+00
 2  3  1     0.0000000000e+00
 2  3  2     0.0000000000e+00
 2  3  3     0.0000000000e+00
 3  1  1     0.0000000000e+00
 3  1  2     0.0000000000e+00
 3  1  3     3.0394400101e-02
 3  2  1     0.0000000000e+00
 3  2  2     0.0000000000e+00
 3  2  3     0.0000000000e+00
 3  3  1    -1.1974227483e-01
 3  3  2     0.0000000000e+00
 3  3  3     0.0000000000e+00

    9
0.0000000000e+00 0.0000000000e+00 0.0000000000e+00
-2.3982708082e+00 -2.3982708082e+00 -4.5129871782e-16
     1      1      1
 1  1  1     1.4141067939e-01
 1  1  2     2.4060123298e-01
 1  1  3     0.0000000000e+00
 1  2  1     3.1745805181e-01
 1  2  2     3.1745805181e-01
 1  2  3     0.0000000000e+00
 1  3  1     0.0000000000e+00
 1  3  2     0.0000000000e+00
 1  3  3    -9.8579319450e-02
 2  1  1     3.1745805181e-01
 2  1  2     3.1745805181e-01
 2  1  3     0.0000000000e+00
 2  2  1     2.4060123298e-01
 2  2  2     1.4141067939e-01
 2  2  3     0.0000000000e+00
 2  3  1     0.0000000000e+00
 2  3  2     0.0000000000e+00
 2  3  3    -9.8579319450e-02
 3  1  1     0.0000000000e+00
 3  1  2     0.0000000000e+00
 3  1  3    -9.8579319450e-02
 3  2  1     0.0000000000e+00
 3  2  2     0.0000000000e+00
 3  2  3    -9.8579319450e-02
 3  3  1    -9.5105865098e-02
 3  3  2    -9.5105865098e-02
 3  3  3     0.0000000000e+00

   10
0.0000000000e+00 0.0000000000e+00 0.0000000000e+00
2.3982708082e+00 -2.3982708082e+00 -4.7965416164e+00
     1      1      2
 1  1  1     0.0000000000e+00
 1  1  2     0.0000000000e+00
 1  1  3    -1.1974227483e-01
 1  2  1     0.0000000000e+00
 1  2  2     0.0000000000e+00
 1  2  3     0.0000000000e+00
 1  3  1     3.0394400101e-02
 1  3  2     0.0000000000e+00
 1  3  3     0.0000000000e+00
 2  1  1     0.0000000000e+00
 2  1  2     0.0000000000e+00
 2  1  3     0.0000000000e+00
 2  2  1     0.0000000000e+00
 2  2  2     0.0000000000e+00
 2  2  3    -1.1974227483e-01
 2  3  1     0.0000000000e+00
 2  3  2     3.0394400101e-02
 2  3  3     0.0000000000e+00
 3  1  1     3.0394400101e-02
 3  1  2     0.0000000000e+00
 3  1  3     0.0000000000e+00
 3  2  1     0.0000000000e+00
 3  2  2     3.0394400101e-02
 3  2  3     0.0000000000e+00
 3  3  1     0.0000000000e+00
 3  3  2     0.0000000000e+00
 3  3  3     2.7390084041e+00

   11
0.0000000000e+00 0.0000000000e+00 0.0000000000e+00
-2.3982708082e+00 2.3982708082e+00 0.0000000000e+00
     1      1      1
 1  1  1     1.4141067939e-01
 1  1  2    -2.4060123298e-01
 1  1  3     0.0000000000e+00
 1  2  1    -3.1745805181e-01
 1  2  2     3.1745805181e-01
 1  2  3     0.0000000000e+00
 1  3  1     0.0000000000e+00
 1  3  2     0.0000000000e+00
 1  3  3    -9.8579319450e-02
 2  1  1    -3.1745805181e-01
 2  1  2     3.1745805181e-01
 2  1  3     0.0000000000e+00
 2  2  1     2.4060123298e-01
 2  2  2    -1.4141067939e-01
 2  2  3     0.0000000000e+00
 2  3  1     0.0000000000e+00
 2  3  2     0.0000000000e+00
 2  3  3     9.8579319450e-02
 3  1  1     0.0000000000e+00
 3  1  2     0.0000000000e+00
 3  1  3    -9.8579319450e-02
 3  2  1     0.0000000000e+00
 3  2  2     0.0000000000e+00
 3  2  3     9.8579319450e-02
 3  3  1    -9.5105865098e-02
 3  3  2     9.5105865098e-02
 3  3  3     0.0000000000e+00

   12
0.0000000000e+00 0.0000000000e+00 0.0000000000e+00
5.0320511507e-16 2.3982708082e+00 -2.3982708082e+00
     1      1      1
 1  1  1     0.0000000000e+00
 1  1  2     9.5105865098e-02
 1  1  3    -9.5105865098e-02
 1  2  1     9.8579319450e-02
 1  2  2     0.0000000000e+00
 1  2  3     0.0000000000e+00
 1  3  1    -9.8579319450e-02
 1  3  2     0.0000000000e+00
 1  3  3     0.0000000000e+00
 2  1  1     9.8579319450e-02
 2  1  2     0.0000000000e+00
 2  1  3     0.0000000000e+00
 2  2  1     0.0000000000e+00
 2  2  2    -1.4141067939e-01
 2  2  3     2.4060123298e-01
 2  3  1     0.0000000000e+00
 2  3  2     3.1745805181e-01
 2  3  3    -3.1745805181e-01
 3  1  1    -9.8579319450e-02
 3  1  2     0.0000000000e+00
 3  1  3     0.0000000000e+00
 3  2  1     0.0000000000e+00
 3  2  2     3.1745805181e-01
 3  2  3    -3.1745805181e-01
 3  3  1     0.0000000000e+00
 3  3  2    -2.4060123298e-01
 3  3  3     1.4141067939e-01

   13
0.0000000000e+00 0.0000000000e+00 0.0000000000e+00
-2.3982708082e+00 -5.0320511507e-16 -2.3982708082e+00
     1      1      1
 1  1  1     1.4141067939e-01
 1  1  2     0.0000000000e+00
 1  1  3     2.4060123298e-01
 1  2  1     0.0000000000e+00
 1  2  2    -9.8579319450e-02
 1  2  3     0.0000000000e+00
 1  3  1     3.1745805181e-01
 1  3  2     0.0000000000e+00
 1  3  3     3.1745805181e-01
 2  1  1     0.0000000000e+00
 2  1  2    -9.8579319450e-02
 2  1  3     0.0000000000e+00
 2  2  1    -9.5105865098e-02
 2  2  2     0.0000000000e+00
 2  2  3    -9.5105865098e-02
 2  3  1     0.0000000000e+00
 2  3  2    -9.8579319450e-02
 2  3  3     0.0000000000e+00
 3  1  1     3.1745805181e-01
 3  1  2     0.0000000000e+00
 3  1  3     3.1745805181e-01
 3  2  1     0.0000000000e+00
 3  2  2    -9.8579319450e-02
 3  2  3     0.0000000000e+00
 3  3  1     2.4060123298e-01
 3  3  2     0.0000000000e+00
 3  3  3     1.4141067939e-01

   14
0.0000000000e+00 0.0000000000e+00 0.0000000000e+00
2.3982708082e+00 -2.3982708082e+00 0.0000000000e+00
     1      1      1
 1  1  1    -1.4141067939e-01
 1  1  2     2.4060123298e-01
 1  1  3     0.0000000000e+00
 1  2  1     3.1745805181e-01
 1  2  2    -3.1745805181e-01
 1  2  3     0.0000000000e+00
 1  3  1     0.0000000000e+00
 1  3  2     0.0000000000e+00
 1  3  3     9.8579319450e-02
 2  1  1     3.1745805181e-01
 2  1  2    -3.1745805181e-01
 2  1  3     0.0000000000e+00
 2  2  1    -2.4060123298e-01
 2  2  2     1.4141067939e-01
 2  2  3     0.0000000000e+00
 2  3  1     0.0000000000e+00
 2  3  2     0.0000000000e+00
 2  3  3    -9.8579319450e-02
 3  1  1     0.0000000000e+00
 3  1  2     0.0000000000e+00
 3  1  3     9.8579319450e-02
 3  2  1     0.0000000000e+00
 3  2  2     0.0000000000e+00
 3  2  3    -9.8579319450e-02
 3  3  1     9.5105865098e-02
 3  3  2    -9.5105865098e-02
 3  3  3     0.0000000000e+00

   15
0.0000000000e+00 0.0000000000e+00 0.0000000000e+00
2.3982708082e+00 -2.3982708082e+00 0.0000000000e+00
     1      1      2
 1  1  1     0.0000000000e+00
 1  1  2     0.0000000000e+00
 1  1  3     1.1974227483e-01
 1  2  1     0.0000000000e+00
 1  2  2     0.0000000000e+00
 1  2  3     0.0000000000e+00
 1  3  1    -3.0394400101e-02
 1  3  2     0.0000000000e+00
 1  3  3     0.0000000000e+00
 2  1  1     0.0000000000e+00
 2  1  2     0.0000000000e+00
 2  1  3     0.0000000000e+00
 2  2  1     0.0000000000e+00
 2  2  2     0.0000000000e+00
 2  2  3     1.1974227483e-01
 2  3  1     0.0000000000e+00
 2  3  2    -3.0394400101e-02
 2  3  3     0.0000000000e+00
 3  1  1    -3.0394400101e-02
 3  1  2     0.0000000000e+00
 3  1  3     0.0000000000e+00
 3  2  1     0.0000000000e+00
 3  2  2    -3.0394400101e-02
 3  2  3     0.0000000000e+00
 3  3  1     0.0000000000e+00
 3  3  2     0.0000000000e+00
 3  3  3    -2.7390084041e+00

   16
0.0000000000e+00 0.0000000000e+00 0.0000000000e+00
4.5129871782e-16 -2.3982708082e+00 2.3982708082e+00
     1      1      1
 1  1  1     0.0000000000e+00
 1  1  2    -9.5105865098e-02
 1  1  3     9.5105865098e-02
 1  2  1    -9.8579319450e-02
 1  2  2     0.0000000000e+00
 1  2  3     0.0000000000e+00
 1  3  1     9.8579319450e-02
 1  3  2     0.0000000000e+00
 1  3  3     0.0000000000e+00
 2  1  1    -9.8579319450e-02
 2  1  2     0.0000000000e+00
 2  1  3     0.0000000000e+00
 2  2  1     0.0000000000e+00
 2  2  2     1.4141067939e-01
 2  2  3    -2.4060123298e-01
 2  3  1     0.0000000000e+00
 2  3  2    -3.1745805181e-01
 2  3  3     3.1745805181e-01
 3  1  1     9.8579319450e-02
 3  1  2     0.0000000000e+00
 3  1  3     0.0000000000e+00
 3  2  1     0.0000000000e+00
 3  2  2    -3.1745805181e-01
 3  2  3     3.1745805181e-01
 3  3  1     0.0000000000e+00
 3  3  2     2.4060123298e-01
 3  3  3    -1.4141067939e-01

   17
0.0000000000e+00 0.0000000000e+00 0.0000000000e+00
4.7965416164e+00 -2.3982708082e+00 -2.3982708082e+00
     1      1      2
 1  1  1    -2.7390084041e+00
 1  1  2     0.0000000000e+00
 1  1  3     0.0000000000e+00
 1  2  1     0.0000000000e+00
 1  2  2    -3.0394400101e-02
 1  2  3     0.0000000000e+00
 1  3  1     0.0000000000e+00
 1  3  2     0.0000000000e+00
 1  3  3    -3.0394400101e-02
 2  1  1     0.0000000000e+00
 2  1  2    -3.0394400101e-02
 2  1  3     0.0000000000e+00
 2  2  1     1.1974227483e-01
 2  2  2     0.0000000000e+00
 2  2  3     0.0000000000e+00
 2  3  1     0.0000000000e+00
 2  3  2     0.0000000000e+00
 2  3  3     0.0000000000e+00
 3  1  1     0.0000000000e+00
 3  1  2     0.0000000000e+00
 3  1  3    -3.0394400101e-02
 3  2  1     0.0000000000e+00
 3  2  2     0.0000000000e+00
 3  2  3     0.0000000000e+00
 3  3  1     1.1974227483e-01
 3  3  2     0.0000000000e+00
 3  3  3     0.0000000000e+00

   18
0.0000000000e+00 0.0000000000e+00 0.0000000000e+00
2.3982708082e+00 -4.5129871782e-16 2.3982708082e+00
     1      1      1
 1  1  1    -1.4141067939e-01
 1  1  2     0.0000000000e+00
 1  1  3    -2.4060123298e-01
 1  2  1     0.0000000000e+00
 1  2  2     9.8579319450e-02
 1  2  3     0.0000000000e+00
 1  3  1    -3.1745805181e-01
 1  3  2     0.0000000000e+00
 1  3  3    -3.1745805181e-01
 2  1  1     0.0000000000e+00
 2  1  2     9.8579319450e-02
 2  1  3     0.0000000000e+00
 2  2  1     9.5105865098e-02
 2  2  2     0.0000000000e+00
 2  2  3     9.5105865098e-02
 2  3  1     0.0000000000e+00
 2  3  2     9.8579319450e-02
 2  3  3     0.0000000000e+00
 3  1  1    -3.1745805181e-01
 3  1  2     0.0000000000e+00
 3  1  3    -3.1745805181e-01
 3  2  1     0.0000000000e+00
 3  2  2     9.8579319450e-02
 3  2  3     0.0000000000e+00
 3  3  1    -2.4060123298e-01
 3  3  2     0.0000000000e+00
 3  3  3    -1.4141067939e-01

   19
0.0000000000e+00 0.0000000000e+00 0.0000000000e+00
2.3982708082e+00 -4.7965416164e+00 -2.3982708082e+00
     1      1      2
 1  1  1     0.0000000000e+00
 1  1  2    -1.1974227483e-01
 1  1  3     0.0000000000e+00
 1  2  1     3.0394400101e-02
 1  2  2     0.0000000000e+00
 1  2  3     0.0000000000e+00
 1  3  1     0.0000000000e+00
 1  3  2     0.0000000000e+00
 1  3  3     0.0000000000e+00
 2  1  1     3.0394400101e-02
 2  1  2     0.0000000000e+00
 2  1  3     0.0000000000e+00
 2  2  1     0.0000000000e+00
 2  2  2     2.7390084041e+00
 2  2  3     0.0000000000e+00
 2  3  1     0.0000000000e+00
 2  3  2     0.0000000000e+00
 2  3  3     3.0394400101e-02
 3  1  1     0.0000000000e+00
 3  1  2     0.0000000000e+00
 3  1  3     0.0000000000e+00
 3  2  1     0.0000000000e+00
 3  2  2     0.0000000000e+00
 3  2  3     3.0394400101e-02
 3  3  1     0.0000000000e+00
 3  3  2    -1.1974227483e-01
 3  3  3     0.0000000000e+00

   20
-2.3982708082e+00 0.0000000000e+00 2.3982708082e+00
0.0000000000e+00 0.0000000000e+00 0.0000000000e+00
     1      1      1
 1  1  1     1.4141067939e-01
 1  1  2     0.0000000000e+00
 1  1  3    -3.1745805181e-01
 1  2  1     0.0000000000e+00
 1  2  2    -9.8579319450e-02
 1  2  3     0.0000000000e+00
 1  3  1    -2.4060123298e-01
 1  3  2     0.0000000000e+00
 1  3  3     3.1745805181e-01
 2  1  1     0.0000000000e+00
 2  1  2    -9.5105865098e-02
 2  1  3     0.0000000000e+00
 2  2  1    -9.8579319450e-02
 2  2  2     0.0000000000e+00
 2  2  3     9.8579319450e-02
 2  3  1     0.0000000000e+00
 2  3  2     9.5105865098e-02
 2  3  3     0.0000000000e+00
 3  1  1    -3.1745805181e-01
 3  1  2     0.0000000000e+00
 3  1  3     2.4060123298e-01
 3  2  1     0.0000000000e+00
 3  2  2     9.8579319450e-02
 3  2  3     0.0000000000e+00
 3  3  1     3.1745805181e-01
 3  3  2     0.0000000000e+00
 3  3  3    -1.4141067939e-01

   21
-2.3982708082e+00 0.0000000000e+00 2.3982708082e+00
-2.3982708082e+00 0.0000000000e+00 2.3982708082e+00
     1      1      1
 1  1  1    -1.4141067939e-01
 1  1  2     0.0000000000e+00
 1  1  3     3.1745805181e-01
 1  2  1     0.0000000000e+00
 1  2  2     9.5105865098e-02
 1  2  3     0.0000000000e+00
 1  3  1     3.1745805181e-01
 1  3  2     0.0000000000e+00
 1  3  3    -2.4060123298e-01
 2  1  1     0.0000000000e+00
 2  1  2     9.8579319450e-02
 2  1  3     0.0000000000e+00
 2  2  1     9.8579319450e-02
 2  2  2     0.0000000000e+00
 2  2  3    -9.8579319450e-02
 2  3  1     0.0000000000e+00
 2  3  2    -9.8579319450e-02
 2  3  3     0.0000000000e+00
 3  1  1     2.4060123298e-01
 3  1  2     0.0000000000e+00
 3  1  3    -3.1745805181e-01
 3  2  1     0.0000000000e+00
 3  2  2    -9.5105865098e-02
 3  2  3     0.0000000000e+00
 3  3  1    -3.1745805181e-01
 3  3  2     0.0000000000e+00
 3  3  3     1.4141067939e-01

   22
-2.3982708082e+00 0.0000000000e+00 2.3982708082e+00
0.0000000000e+00 2.3982708082e+00 2.3982708082e+00
     1      1      1
 1  1  1    -7.0705339696e-03
 1  1  2    -1.1172548473e-02
 1  1  3     3.8926384757e-03
 1  2  1    -3.2195553083e-03
 1  2  2     3.8926384757e-03
 1  2  3     0.0000000000e+00
 1  3  1     3.2195553083e-03
 1  3  2     5.1422065233e-03
 1  3  3     3.2195553083e-03
 2  1  1    -3.8926384757e-03
 2  1  2     1.1172548473e-02
 2  1  3     5.1422065233e-03
 2  2  1     3.2195553083e-03
 2  2  2     7.0705339696e-03
 2  2  3     3.2195553083e-03
 2  3  1     0.0000000000e+00
 2  3  2     3.8926384757e-03
 2  3  3    -3.2195553083e-03
 3  1  1     1.1172548473e-02
 3  1  2     1.0927188862e-02
 3  1  3     1.1172548473e-02
 3  2  1     5.1422065233e-03
 3  2  2     1.1172548473e-02
 3  2  3    -3.8926384757e-03
 3  3  1     3.8926384757e-03
 3  3  2    -1.1172548473e-02
 3  3  3    -7.0705339696e-03

   23
-2.3982708082e+00 0.0000000000e+00 2.3982708082e+00
0.0000000000e+00 -2.3982708082e+00 -2.3982708082e+00
     1      1      2
 1  1  1    -1.4783225747e-02
 1  1  2     0.0000000000e+00
 1  1  3     3.3822936202e-02
 1  2  1     0.0000000000e+00
 1  2  2     3.8431550195e-03
 1  2  3     0.0000000000e+00
 1  3  1    -7.3483114054e-02
 1  3  2     0.0000000000e+00
 1  3  3    -7.3483114054e-02
 2  1  1     0.0000000000e+00
 2  1  2    -1.4190119326e-02
 2  1  3     0.0000000000e+00
 2  2  1    -2.0657840826e-02
 2  2  2     0.0000000000e+00
 2  2  3    -2.0657840826e-02
 2  3  1     0.0000000000e+00
 2  3  2     3.8431550195e-03
 2  3  3     0.0000000000e+00
 3  1  1    -1.2532281639e-02
 3  1  2     0.0000000000e+00
 3  1  3    -1.2532281639e-02
 3  2  1     0.0000000000e+00
 3  2  2    -1.4190119326e-02
 3  2  3     0.0000000000e+00
 3  3  1     3.3822936202e-02
 3  3  2     0.0000000000e+00
 3  3  3    -1.4783225747e-02

   24
-2.3982708082e+00 0.0000000000e+00 2.3982708082e+00
-2.3982708082e+00 -2.3982708082e+00 -4.5129871782e-16
     1      1      1
 1  1  1     7.0705339696e-03
 1  1  2     1.1172548473e-02
 1  1  3    -3.8926384757e-03
 1  2  1     3.8926384757e-03
 1  2  2    -1.1172548473e-02
 1  2  3    -5.1422065233e-03
 1  3  1    -1.1172548473e-02
 1  3  2    -1.0927188862e-02
 1  3  3    -1.1172548473e-02
 2  1  1     3.2195553083e-03
 2  1  2    -3.8926384757e-03
 2  1  3     0.0000000000e+00
 2  2  1    -3.2195553083e-03
 2  2  2    -7.0705339696e-03
 2  2  3    -3.2195553083e-03
 2  3  1    -5.1422065233e-03
 2  3  2    -1.1172548473e-02
 2  3  3     3.8926384757e-03
 3  1  1    -3.2195553083e-03
 3  1  2    -5.1422065233e-03
 3  1  3    -3.2195553083e-03
 3  2  1     0.0000000000e+00
 3  2  2    -3.8926384757e-03
 3  2  3     3.2195553083e-03
 3  3  1    -3.8926384757e-03
 3  3  2     1.1172548473e-02
 3  3  3     7.0705339696e-03

   25
-2.3982708082e+00 0.0000000000e+00 2.3982708082e+00
-2.3982708082e+00 2.3982708082e+00 0.0000000000e+00
     1      1      1
 1  1  1     7.0705339696e-03
 1  1  2    -1.1172548473e-02
 1  1  3    -3.8926384757e-03
 1  2  1    -3.8926384757e-03
 1  2  2    -1.1172548473e-02
 1  2  3     5.1422065233e-03
 1  3  1    -1.1172548473e-02
 1  3  2     1.0927188862e-02
 1  3  3    -1.1172548473e-02
 2  1  1    -3.2195553083e-03
 2  1  2    -3.8926384757e-03
 2  1  3     0.0000000000e+00
 2  2  1    -3.2195553083e-03
 2  2  2     7.0705339696e-03
 2  2  3    -3.2195553083e-03
 2  3  1     5.1422065233e-03
 2  3  2    -1.1172548473e-02
 2  3  3    -3.8926384757e-03
 3  1  1    -3.2195553083e-03
 3  1  2     5.1422065233e-03
 3  1  3    -3.2195553083e-03
 3  2  1     0.0000000000e+00
 3  2  2    -3.8926384757e-03
 3  2  3    -3.2195553083e-03
 3  3  1    -3.8926384757e-03
 3  3  2    -1.1172548473e-02
 3  3  3     7.0705339696e-03

   26
-2.3982708082e+00 0.0000000000e+00 2.3982708082e+00
2.3982708082e+00 -2.3982708082e+00 0.0000000000e+00
     1      1      2
 1  1  1     1.4783225747e-02
 1  1  2     0.0000000000e+00
 1  1  3    -3.3822936202e-02
 1  2  1     0.0000000000e+00
 1  2  2     1.4190119326e-02
 1  2  3     0.0000000000e+00
 1  3  1     1.2532281639e-02
 1  3  2     0.0000000000e+00
 1  3  3     1.2532281639e-02
 2  1  1     0.0000000000e+00
 2  1  2    -3.8431550195e-03
 2  1  3     0.0000000000e+00
 2  2  1     2.0657840826e-02
 2  2  2     0.0000000000e+00
 2  2  3     2.0657840826e-02
 2  3  1     0.0000000000e+00
 2  3  2     1.4190119326e-02
 2  3  3     0.0000000000e+00
 3  1  1     7.3483114054e-02
 3  1  2     0.0000000000e+00
 3  1  3     7.3483114054e-02
 3  2  1     0.0000000000e+00
 3  2  2    -3.8431550195e-03
 3  2  3     0.0000000000e+00
 3  3  1    -3.3822936202e-02
 3  3  2     0.0000000000e+00
 3  3  3     1.4783225747e-02

   27
-2.3982708082e+00 0.0000000000e+00 2.3982708082e+00
4.5129871782e-16 -2.3982708082e+00 2.3982708082e+00
     1      1      1
 1  1  1    -7.0705339696e-03
 1  1  2     1.1172548473e-02
 1  1  3     3.8926384757e-03
 1  2  1     3.2195553083e-03
 1  2  2     3.8926384757e-03
 1  2  3     0.0000000000e+00
 1  3  1     3.2195553083e-03
 1  3  2    -5.1422065233e-03
 1  3  3     3.2195553083e-03
 2  1  1     3.8926384757e-03
 2  1  2     1.1172548473e-02
 2  1  3    -5.1422065233e-03
 2  2  1     3.2195553083e-03
 2  2  2    -7.0705339696e-03
 2  2  3     3.2195553083e-03
 2  3  1     0.0000000000e+00
 2  3  2     3.8926384757e-03
 2  3  3     3.2195553083e-03
 3  1  1     1.1172548473e-02
 3  1  2    -1.0927188862e-02
 3  1  3     1.1172548473e-02
 3  2  1    -5.1422065233e-03
 3  2  2     1.1172548473e-02
 3  2  3     3.8926384757e-03
 3  3  1     3.8926384757e-03
 3  3  2     1.1172548473e-02
 3  3  3    -7.0705339696e-03

   28
2.3982708082e+00 0.0000000000e+00 -2.3982708082e+00
0.0000000000e+00 0.0000000000e+00 0.0000000000e+00
     1      1      1
 1  1  1    -1.4141067939e-01
 1  1  2     0.0000000000e+00
 1  1  3     3.1745805181e-01
 1  2  1     0.0000000000e+00
 1  2  2     9.8579319450e-02
 1  2  3     0.0000000000e+00
 1  3  1     2.4060123298e-01
 1  3  2     0.0000000000e+00
 1  3  3    -3.1745805181e-01
 2  1  1     0.0000000000e+00
 2  1  2     9.5105865098e-02
 2  1  3     0.0000000000e+00
 2  2  1     9.8579319450e-02
 2  2  2     0.0000000000e+00
 2  2  3    -9.8579319450e-02
 2  3  1     0.0000000000e+00
 2  3  2    -9.5105865098e-02
 2  3  3     0.0000000000e+00
 3  1  1     3.1745805181e-01
 3  1  2     0.0000000000e+00
 3  1  3    -2.4060123298e-01
 3  2  1     0.0000000000e+00
 3  2  2    -9.8579319450e-02
 3  2  3     0.0000000000e+00
 3  3  1    -3.1745805181e-01
 3  3  2     0.0000000000e+00
 3  3  3     1.4141067939e-01

   29
2.3982708082e+00 0.0000000000e+00 -2.3982708082e+00
2.3982708082e+00 0.0000000000e+00 -2.3982708082e+00
     1      1      1
 1  1  1     1.4141067939e-01
 1  1  2     0.0000000000e+00
 1  1  3    -3.1745805181e-01
 1  2  1     0.0000000000e+00
 1  2  2    -9.5105865098e-02
 1  2  3     0.0000000000e+00
 1  3  1    -3.1745805181e-01
 1  3  2     0.0000000000e+00
 1  3  3     2.4060123298e-01
 2  1  1     0.0000000000e+00
 2  1  2    -9.8579319450e-02
 2  1  3     0.0000000000e+00
 2  2  1    -9.8579319450e-02
 2  2  2     0.0000000000e+00
 2  2  3     9.8579319450e-02
 2  3  1     0.0000000000e+00
 2  3  2     9.8579319450e-02
 2  3  3     0.0000000000e+00
 3  1  1    -2.4060123298e-01
 3  1  2     0.0000000000e+00
 3  1  3     3.1745805181e-01
 3  2  1     0.0000000000e+00
 3  2  2     9.5105865098e-02
 3  2  3     0.0000000000e+00
 3  3  1     3.1745805181e-01
 3  3  2     0.0000000000e+00
 3  3  3    -1.4141067939e-01

   30
2.3982708082e+00 0.0000000000e+00 -2.3982708082e+00
2.3982708082e+00 2.3982708082e+00 -5.0320511507e-16
     1      1      1
 1  1  1    -7.0705339696e-03
 1  1  2    -1.1172548473e-02
 1  1  3     3.8926384757e-03
 1  2  1    -3.8926384757e-03
 1  2  2     1.1172548473e-02
 1  2  3     5.1422065233e-03
 1  3  1     1.1172548473e-02
 1  3  2     1.0927188862e-02
 1  3  3     1.1172548473e-02
 2  1  1    -3.2195553083e-03
 2  1  2     3.8926384757e-03
 2  1  3     0.0000000000e+00
 2  2  1     3.2195553083e-03
 2  2  2     7.0705339696e-03
 2  2  3     3.2195553083e-03
 2  3  1     5.1422065233e-03
 2  3  2     1.1172548473e-02
 2  3  3    -3.8926384757e-03
 3  1  1     3.2195553083e-03
 3  1  2     5.1422065233e-03
 3  1  3     3.2195553083e-03
 3  2  1     0.0000000000e+00
 3  2  2     3.8926384757e-03
 3  2  3    -3.2195553083e-03
 3  3  1     3.8926384757e-03
 3  3  2    -1.1172548473e-02
 3  3  3    -7.0705339696e-03

   31
2.3982708082e+00 0.0000000000e+00 -2.3982708082e+00
0.0000000000e+00 -2.3982708082e+00 -2.3982708082e+00
     1      1      1
 1  1  1     7.0705339696e-03
 1  1  2     1.1172548473e-02
 1  1  3    -3.8926384757e-03
 1  2  1     3.2195553083e-03
 1  2  2    -3.8926384757e-03
 1  2  3     0.0000000000e+00
 1  3  1    -3.2195553083e-03
 1  3  2    -5.1422065233e-03
 1  3  3    -3.2195553083e-03
 2  1  1     3.8926384757e-03
 2  1  2    -1.1172548473e-02
 2  1  3    -5.1422065233e-03
 2  2  1    -3.2195553083e-03
 2  2  2    -7.0705339696e-03
 2  2  3    -3.2195553083e-03
 2  3  1     0.0000000000e+00
 2  3  2    -3.8926384757e-03
 2  3  3     3.2195553083e-03
 3  1  1    -1.1172548473e-02
 3  1  2    -1.0927188862e-02
 3  1  3    -1.1172548473e-02
 3  2  1    -5.1422065233e-03
 3  2  2    -1.1172548473e-02
 3  2  3     3.8926384757e-03
 3  3  1    -3.8926384757e-03
 3  3  2     1.1172548473e-02
 3  3  3     7.0705339696e-03

   32
2.3982708082e+00 0.0000000000e+00 -2.3982708082e+00
2.3982708082e+00 -2.3982708082e+00 -4.7965416164e+00
     1      1      2
 1  1  1    -1.4783225747e-02
 1  1  2     0.0000000000e+00
 1  1  3     3.3822936202e-02
 1  2  1     0.0000000000e+00
 1  2  2    -1.4190119326e-02
 1  2  3     0.0000000000e+00
 1  3  1    -1.2532281639e-02
 1  3  2     0.0000000000e+00
 1  3  3    -1.2532281639e-02
 2  1  1     0.0000000000e+00
 2  1  2     3.8431550195e-03
 2  1  3     0.0000000000e+00
 2  2  1    -2.0657840826e-02
 2  2  2     0.0000000000e+00
 2  2  3    -2.0657840826e-02
 2  3  1     0.0000000000e+00
 2  3  2    -1.4190119326e-02
 2  3  3     0.0000000000e+00
 3  1  1    -7.3483114054e-02
 3  1  2     0.0000000000e+00
 3  1  3    -7.3483114054e-02
 3  2  1     0.0000000000e+00