   0.33874E+01   0.49932E-03   0.49932E-03   0.49894E-03   0.49894E-03
   0.67747E+01   0.12495E-02   0.12495E-02   0.12476E-02   0.12476E-02
   0.10162E+02   0.21075E-02   0.21075E-02   0.21024E-02   0.21024E-02
   0.13549E+02   0.28410E-02   0.28410E-02   0.28322E-02   0.28322E-02
   0.16937E+02   0.43142E-02   0.43142E-02   0.42957E-02   0.42957E-02
   0.20324E+02   0.63753E-02   0.63753E-02   0.63395E-02   0.63395E-02
   0.23712E+02   0.67960E-02   0.67960E-02   0.67669E-02   0.67669E-02
   0.27099E+02   0.60053E-02   0.60053E-02   0.59886E-02   0.59886E-02
   0.30486E+02   0.57810E-02   0.57810E-02   0.57703E-02   0.57703E-02
   0.33874E+02   0.57674E-02   0.57674E-02   0.57611E-02   0.57611E-02
   0.37261E+02   0.58476E-02   0.58476E-02   0.58451E-02   0.58451E-02
   0.40648E+02   0.59545E-02   0.59545E-02   0.59556E-02   0.59556E-02
   0.44036E+02   0.61029E-02   0.61029E-02   0.61076E-02   0.61076E-02
   0.47423E+02   0.62786E-02   0.62786E-02   0.62870E-02   0.62870E-02
   0.50811E+02   0.65097E-02   0.65097E-02   0.65220E-02   0.65220E-02
   0.54198E+02   0.67207E-02   0.67207E-02   0.67373E-02   0.67373E-02
   0.57585E+02   0.70037E-02   0.70037E-02   0.70248E-02   0.70248E-02
   0.60973E+02   0.72875E-02   0.72875E-02   0.73141E-02   0.73141E-02
   0.64360E+02   0.76509E-02   0.76509E-02   0.76835E-02   0.76835E-02
   0.67747E+02   0.80029E-02   0.80029E-02   0.80429E-02   0.80429E-02
   0.71135E+02   0.84604E-02   0.84604E-02   0.85092E-02   0.85092E-02
   0.74522E+02   0.89638E-02   0.89638E-02   0.90240E-02   0.90240E-02
   0.77909E+02   0.96139E-02   0.96139E-02   0.96892E-02   0.96892E-02
   0.81297E+02   0.10427E-01   0.10427E-01   0.10524E-01   0.10524E-01
   0.84684E+02   0.11717E-01   0.11717E-01   0.11849E-01   0.11849E-01
   0.88072E+02   0.14788E-01   0.14788E-01   0.14996E-01   0.14996E-01
   0.91459E+02   0.12087E-01   0.12087E-01   0.12372E-01   0.12372E-01
   0.94846E+02   0.68969E-02   0.68969E-02   0.69756E-02   0.69756E-02
   0.98234E+02   0.56452E-02   0.56452E-02   0.57021E-02   0.57021E-02
   0.10162E+03   0.53947E-02   0.53947E-02   0.53677E-02   0.53677E-02
   0.10501E+03   0.69939E-02   0.69939E-02   0.68963E-02   0.68963E-02
   0.10840E+03   0.89141E-02   0.89141E-02   0.88041E-02   0.88041E-02
   0.11178E+03   0.11544E-01   0.11544E-01   0.11402E-01   0.11402E-01
   0.11517E+03   0.16212E-01   0.16212E-01   0.16003E-01   0.16003E-01
   0.11856E+03   0.24206E-01   0.24206E-01   0.23802E-01   0.23802E-01
   0.12195E+03   0.17807E-01   0.17807E-01   0.17581E-01   0.17581E-01
   0.12533E+03   0.15754E-01   0.15754E-01   0.15585E-01   0.15585E-01
   0.12872E+03   0.14581E-01   0.14581E-01   0.14446E-01   0.14446E-01
   0.13211E+03   0.14134E-01   0.14134E-01   0.14019E-01   0.14019E-01
   0.13549E+03   0.13598E-01   0.13598E-01   0.13501E-01   0.13501E-01
   0.13888E+03   0.13367E-01   0.13367E-01   0.13285E-01   0.13285E-01
   0.14227E+03   0.13306E-01   0.13306E-01   0.13235E-01   0.13235E-01
   0.14566E+03   0.13343E-01   0.13343E-01   0.13284E-01   0.13284E-01
   0.14904E+03   0.13501E-01   0.13501E-01   0.13455E-01   0.13455E-01
   0.15243E+03   0.13807E-01   0.13807E-01   0.13774E-01   0.13774E-01
   0.15582E+03   0.14305E-01   0.14305E-01   0.14288E-01   0.14288E-01
   0.15921E+03   0.15060E-01   0.15060E-01   0.15061E-01   0.15061E-01
   0.16259E+03   0.15989E-01   0.15989E-01   0.16016E-01   0.16016E-01
   0.16598E+03   0.17066E-01   0.17066E-01   0.17124E-01   0.17124E-01
   0.16937E+03   0.47725E-02   0.47725E-02   0.47534E-02   0.47534E-02
   0.17276E+03   0.46974E-02   0.46974E-02   0.46801E-02   0.46801E-02
   0.17614E+03   0.46651E-02   0.46651E-02   0.46496E-02   0.46496E-02
   0.17953E+03   0.45566E-02   0.45566E-02   0.45437E-02   0.45437E-02
   0.18292E+03   0.45900E-02   0.45900E-02   0.45786E-02   0.45786E-02
   0.18631E+03   0.45808E-02   0.45808E-02   0.45718E-02   0.45718E-02
   0.18969E+03   0.43432E-02   0.43432E-02   0.43399E-02   0.43399E-02
   0.19308E+03   0.32942E-02   0.32942E-02   0.33076E-02   0.33076E-02
   0.19647E+03   0.34556E-02   0.34556E-02   0.34709E-02   0.34709E-02
   0.19985E+03   0.36522E-02   0.36522E-02   0.36699E-02   0.36699E-02
   0.20324E+03   0.38679E-02   0.38679E-02   0.38886E-02   0.38886E-02
   0.20663E+03   0.40912E-02   0.40912E-02   0.41156E-02   0.41156E-02
   0.21002E+03   0.43819E-02   0.43819E-02   0.44113E-02   0.44113E-02
   0.21340E+03   0.46703E-02   0.46703E-02   0.47060E-02   0.47060E-02
   0.21679E+03   0.50191E-02   0.50191E-02   0.50634E-02   0.50634E-02
   0.22018E+03   0.54513E-02   0.54513E-02   0.55081E-02   0.55081E-02
   0.22357E+03   0.58623E-02   0.58623E-02   0.59367E-02   0.59367E-02
   0.22695E+03   0.64101E-02   0.64101E-02   0.65163E-02   0.65163E-02
   0.23034E+03   0.76499E-02   0.76499E-02   0.78534E-02   0.78534E-02
   0.23373E+03   0.57174E-02   0.57174E-02   0.58140E-02   0.58140E-02
   0.23712E+03   0.55278E-02   0.55278E-02   0.56125E-02   0.56125E-02
   0.24050E+03   0.56255E-02   0.56255E-02   0.57181E-02   0.57181E-02
   0.24389E+03   0.59311E-02   0.59311E-02   0.60325E-02   0.60325E-02
   0.24728E+03   0.59295E-02   0.59295E-02   0.60295E-02   0.60295E-02
   0.25067E+03   0.58126E-02   0.58126E-02   0.59107E-02   0.59107E-02
   0.25405E+03   0.53457E-02   0.53457E-02   0.53016E-02   0.53016E-02
   0.25744E+03   0.68051E-02   0.68051E-02   0.64830E-02   0.64830E-02
   0.26083E+03   0.62329E-02   0.62329E-02   0.60045E-02   0.60045E-02
   0.26421E+03   0.32914E-01   0.32914E-01   0.32986E-01   0.32986E-01
   0.26760E+03   0.28139E-01   0.28139E-01   0.28190E-01   0.28190E-01
   0.27099E+03   0.45407E-01   0.45407E-01   0.45671E-01   0.45671E-01
   0.27438E+03   0.22005E-01   0.22005E-01   0.22054E-01   0.22054E-01
   0.27776E+03   0.17508E-01   0.17508E-01   0.17527E-01   0.17527E-01
   0.28115E+03   0.15304E-01   0.15304E-01   0.15312E-01   0.15312E-01
   0.28454E+03   0.14017E-01   0.14017E-01   0.14022E-01   0.14022E-01
   0.28793E+03   0.13250E-01   0.13250E-01   0.13253E-01   0.13253E-01
   0.29131E+03   0.12716E-01   0.12716E-01   0.12717E-01   0.12717E-01
   0.29470E+03   0.12508E-01   0.12508E-01   0.12507E-01   0.12507E-01
   0.29809E+03   0.12644E-01   0.12644E-01   0.12639E-01   0.12639E-01
   0.30148E+03   0.13419E-01   0.13419E-01   0.13411E-01   0.13411E-01
   0.30486E+03   0.18769E-01   0.18769E-01   0.18749E-01   0.18749E-01
   0.30825E+03   0.43474E-03   0.43474E-03   0.43450E-03   0.43450E-03
   0.31164E+03   0.00000E+00   0.00000E+00   0.00000E+00   0.00000E+00
   0.31503E+03   0.00000E+00   0.00000E+00   0.00000E+00   0.00000E+00
   0.31841E+03   0.00000E+00   0.00000E+00   0.00000E+00   0.00000E+00
   0.32180E+03   0.00000E+00   0.00000E+00   0.00000E+00   0.00000E+00
   0.32519E+03   0.00000E+00   0.00000E+00   0.00000E+00   0.00000E+00
   0.32857E+03   0.00000E+00   0.00000E+00   0.00000E+00   0.00000E+00
   0.33196E+03   0.00000E+00   0.00000E+00   0.00000E+00   0.00000E+00
   0.33535E+03   0.00000E+00   0.00000E+00   0.00000E+00   0.00000E+00
   0.33874E+03   0.00000E+00   0.00000E+00   0.00000E+00   0.00000E+00
