 2260

    1
0.0000000000e+00 0.0000000000e+00 0.0000000000e+00
0.0000000000e+00 0.0000000000e+00 0.0000000000e+00
     1      1      1
 1  1  1     0.0000000000e+00
 1  1  2    -1.7702847139e+02
 1  1  3     0.0000000000e+00
 1  2  1    -1.7702847139e+02
 1  2  2     0.0000000000e+00
 1  2  3     0.0000000000e+00
 1  3  1     0.0000000000e+00
 1  3  2     0.0000000000e+00
 1  3  3     0.0000000000e+00
 2  1  1    -1.7702847139e+02
 2  1  2     0.0000000000e+00
 2  1  3     0.0000000000e+00
 2  2  1     0.0000000000e+00
 2  2  2     1.7702847139e+02
 2  2  3     0.0000000000e+00
 2  3  1     0.0000000000e+00
 2  3  2     0.0000000000e+00
 2  3  3     0.0000000000e+00
 3  1  1     0.0000000000e+00
 3  1  2     0.0000000000e+00
 3  1  3     0.0000000000e+00
 3  2  1     0.0000000000e+00
 3  2  2     0.0000000000e+00
 3  2  3     0.0000000000e+00
 3  3  1     0.0000000000e+00
 3  3  2     0.0000000000e+00
 3  3  3     0.0000000000e+00

    2
0.0000000000e+00 0.0000000000e+00 0.0000000000e+00
0.0000000000e+00 0.0000000000e+00 0.0000000000e+00
     1      1      2
 1  1  1     0.0000000000e+00
 1  1  2     1.9926040192e-02
 1  1  3     1.7323426808e-01
 1  2  1     1.9926040192e-02
 1  2  2     0.0000000000e+00
 1  2  3     0.0000000000e+00
 1  3  1     9.9036445544e-02
 1  3  2     0.0000000000e+00
 1  3  3     0.0000000000e+00
 2  1  1     1.9926040192e-02
 2  1  2     0.0000000000e+00
 2  1  3     0.0000000000e+00
 2  2  1     0.0000000000e+00
 2  2  2    -1.9926040192e-02
 2  2  3     1.7323426808e-01
 2  3  1     0.0000000000e+00
 2  3  2     9.9036445544e-02
 2  3  3     0.0000000000e+00
 3  1  1     9.9036445544e-02
 3  1  2     0.0000000000e+00
 3  1  3     0.0000000000e+00
 3  2  1     0.0000000000e+00
 3  2  2     9.9036445544e-02
 3  2  3     0.0000000000e+00
 3  3  1     0.0000000000e+00
 3  3  2     0.0000000000e+00
 3  3  3     8.5489183451e-02

    3
0.0000000000e+00 0.0000000000e+00 0.0000000000e+00
0.0000000000e+00 0.0000000000e+00 0.0000000000e+00
     1      1      3
 1  1  1     0.0000000000e+00
 1  1  2     1.0807832935e+01
 1  1  3     0.0000000000e+00
 1  2  1     1.3714660965e+01
 1  2  2     0.0000000000e+00
 1  2  3     0.0000000000e+00
 1  3  1     0.0000000000e+00
 1  3  2     0.0000000000e+00
 1  3  3     0.0000000000e+00
 2  1  1     1.3714660965e+01
 2  1  2     0.0000000000e+00
 2  1  3     0.0000000000e+00
 2  2  1     0.0000000000e+00
 2  2  2    -2.0013659106e+02
 2  2  3     0.0000000000e+00
 2  3  1     0.0000000000e+00
 2  3  2     0.0000000000e+00
 2  3  3     1.6388572255e+01
 3  1  1     0.0000000000e+00
 3  1  2     0.0000000000e+00
 3  1  3     0.0000000000e+00
 3  2  1     0.0000000000e+00
 3  2  2     0.0000000000e+00
 3  2  3     1.6388572255e+01
 3  3  1     0.0000000000e+00
 3  3  2     1.3984193843e+01
 3  3  3     0.0000000000e+00

    4
0.0000000000e+00 0.0000000000e+00 0.0000000000e+00
0.0000000000e+00 0.0000000000e+00 0.0000000000e+00
     1      1      4
 1  1  1     1.7656729142e-02
 1  1  2     6.4067011298e-03
 1  1  3     6.1977817462e-02
 1  2  1    -1.0515300791e-02
 1  2  2    -3.8843459837e-03
 1  2  3    -1.3678174298e-02
 1  3  1    -6.3001432713e-02
 1  3  2    -2.3272007451e-02
 1  3  3    -8.3216042762e-02
 2  1  1    -1.0515300791e-02
 2  1  2    -3.8843459837e-03
 2  1  3    -1.3678174298e-02
 2  2  1     2.5425421110e-02
 2  2  2     1.8466789915e-02
 2  2  3     7.7772012688e-02
 2  3  1    -2.3272007451e-02
 2  3  2    -3.6129233181e-02
 2  3  3    -4.8044804689e-02
 3  1  1    -6.3001432713e-02
 3  1  2    -2.3272007451e-02
 3  1  3    -8.3216042762e-02
 3  2  1    -2.3272007451e-02
 3  2  2    -3.6129233181e-02
 3  2  3    -4.8044804689e-02
 3  3  1    -3.0020253813e-01
 3  3  2    -1.7332201620e-01
 3  3  3    -2.6095128535e-01

    5
0.0000000000e+00 0.0000000000e+00 0.0000000000e+00
2.4432895550e+00 0.0000000000e+00 0.0000000000e+00
     1      1      1
 1  1  1    -1.0780635976e+01
 1  1  2    -7.5942178223e-01
 1  1  3     0.0000000000e+00
 1  2  1     1.6457514467e+00
 1  2  2     2.3434457500e+00
 1  2  3     0.0000000000e+00
 1  3  1     0.0000000000e+00
 1  3  2     0.0000000000e+00
 1  3  3     2.2784041704e+00
 2  1  1     1.6457514467e+00
 2  1  2     2.3434457500e+00
 2  1  3     0.0000000000e+00
 2  2  1     2.3765878003e+00
 2  2  2     1.1962595566e+00
 2  2  3     0.0000000000e+00
 2  3  1     0.0000000000e+00
 2  3  2     0.0000000000e+00
 2  3  3     1.0082009734e+00
 3  1  1     0.0000000000e+00
 3  1  2     0.0000000000e+00
 3  1  3     2.2784041704e+00
 3  2  1     0.0000000000e+00
 3  2  2     0.0000000000e+00
 3  2  3     1.0082009734e+00
 3  3  1    -3.5715216479e-01
 3  3  2     5.9287649485e-01
 3  3  3     0.0000000000e+00

    6
0.0000000000e+00 0.0000000000e+00 0.0000000000e+00
2.4432895550e+00 0.0000000000e+00 0.0000000000e+00
     1      1      2
 1  1  1    -6.4277581542e-03
 1  1  2    -1.7369577728e-02
 1  1  3     4.9808506572e-02
 1  2  1    -1.3670403283e-02
 1  2  2     8.6503761369e-03
 1  2  3    -2.0981897579e-02
 1  3  1     2.3066648112e-02
 1  3  2    -2.4864555127e-02
 1  3  3     1.0243164745e-02
 2  1  1    -1.3670403283e-02
 2  1  2     8.6503761369e-03
 2  1  3    -2.0981897579e-02
 2  2  1    -2.2351982953e-02
 2  2  2     1.4783852082e-02
 2  2  3    -2.1442813517e-02
 2  3  1    -2.0759880675e-02
 2  3  2     5.4210108624e-17
 2  3  3     3.8575499856e-03
 3  1  1     2.3066648112e-02
 3  1  2    -2.4864555127e-02
 3  1  3     1.0243164745e-02
 3  2  1    -2.0759880675e-02
 3  2  2     5.4210108624e-17
 3  2  3     3.8575499856e-03
 3  3  1     5.5130074799e-02
 3  3  2    -3.1555712693e-02
 3  3  3     5.1422065233e-03

    7
0.0000000000e+00 0.0000000000e+00 0.0000000000e+00
2.4432895550e+00 0.0000000000e+00 0.0000000000e+00
     1      1      3
 1  1  1    -1.8259298799e+00
 1  1  2     1.0901260429e+00
 1  1  3     0.0000000000e+00
 1  2  1    -6.3399587753e-01
 1  2  2    -1.6040655482e+00
 1  2  3     0.0000000000e+00
 1  3  1     0.0000000000e+00
 1  3  2     0.0000000000e+00
 1  3  3     1.3398340348e-02
 2  1  1    -6.3399587753e-01
 2  1  2    -1.6040655482e+00
 2  1  3     0.0000000000e+00
 2  2  1     1.3822012164e+00
 2  2  2    -1.3463129062e+00
 2  2  3     0.0000000000e+00
 2  3  1     0.0000000000e+00
 2  3  2     0.0000000000e+00
 2  3  3     7.7355354064e-03
 3  1  1     0.0000000000e+00
 3  1  2     0.0000000000e+00
 3  1  3     1.3398340348e-02
 3  2  1     0.0000000000e+00
 3  2  2     0.0000000000e+00
 3  2  3     7.7355354064e-03
 3  3  1    -1.0507020154e-01
 3  3  2    -6.0662309141e-02
 3  3  3     0.0000000000e+00

    8
0.0000000000e+00 0.0000000000e+00 0.0000000000e+00
-2.4432895550e+00 0.0000000000e+00 0.0000000000e+00
     1      1      1
 1  1  1     1.0780635976e+01
 1  1  2    -7.5942178223e-01
 1  1  3     0.0000000000e+00
 1  2  1     1.6457514467e+00
 1  2  2    -2.3434457500e+00
 1  2  3     0.0000000000e+00
 1  3  1     0.0000000000e+00
 1  3  2     0.0000000000e+00
 1  3  3    -2.2784041704e+00
 2  1  1     1.6457514467e+00
 2  1  2    -2.3434457500e+00
 2  1  3     0.0000000000e+00
 2  2  1    -2.3765878003e+00
 2  2  2     1.1962595566e+00
 2  2  3     0.0000000000e+00
 2  3  1     0.0000000000e+00
 2  3  2     0.0000000000e+00
 2  3  3     1.0082009734e+00
 3  1  1     0.0000000000e+00
 3  1  2     0.0000000000e+00
 3  1  3    -2.2784041704e+00
 3  2  1     0.0000000000e+00
 3  2  2     0.0000000000e+00
 3  2  3     1.0082009734e+00
 3  3  1     3.5715216479e-01
 3  3  2     5.9287649485e-01
 3  3  3     0.0000000000e+00

    9
0.0000000000e+00 0.0000000000e+00 0.0000000000e+00
-2.4432895550e+00 0.0000000000e+00 0.0000000000e+00
     1      1      2
 1  1  1     6.4277581542e-03
 1  1  2    -1.7369577728e-02
 1  1  3     4.9808506572e-02
 1  2  1    -1.3670403283e-02
 1  2  2    -8.6503761369e-03
 1  2  3     2.0981897579e-02
 1  3  1     2.3066648112e-02
 1  3  2     2.4864555127e-02
 1  3  3    -1.0243164745e-02
 2  1  1    -1.3670403283e-02
 2  1  2    -8.6503761369e-03
 2  1  3     2.0981897579e-02
 2  2  1     2.2351982953e-02
 2  2  2     1.4783852082e-02
 2  2  3    -2.1442813517e-02
 2  3  1     2.0759880675e-02
 2  3  2     5.4210108624e-17
 2  3  3     3.8575499856e-03
 3  1  1     2.3066648112e-02
 3  1  2     2.4864555127e-02
 3  1  3    -1.0243164745e-02
 3  2  1     2.0759880675e-02
 3  2  2     5.4210108624e-17
 3  2  3     3.8575499856e-03
 3  3  1    -5.5130074799e-02
 3  3  2    -3.1555712693e-02
 3  3  3     5.1422065233e-03

   10
0.0000000000e+00 0.0000000000e+00 0.0000000000e+00
-2.4432895550e+00 0.0000000000e+00 0.0000000000e+00
     1      1      3
 1  1  1     1.8259298799e+00
 1  1  2     1.0901260429e+00
 1  1  3     0.0000000000e+00
 1  2  1    -6.3399587753e-01
 1  2  2     1.6040655482e+00
 1  2  3     0.0000000000e+00
 1  3  1     0.0000000000e+00
 1  3  2     0.0000000000e+00
 1  3  3    -1.3398340348e-02
 2  1  1    -6.3399587753e-01
 2  1  2     1.6040655482e+00
 2  1  3     0.0000000000e+00
 2  2  1    -1.3822012164e+00
 2  2  2    -1.3463129062e+00
 2  2  3     0.0000000000e+00
 2  3  1     0.0000000000e+00
 2  3  2     0.0000000000e+00
 2  3  3     7.7355354064e-03
 3  1  1     0.0000000000e+00
 3  1  2     0.0000000000e+00
 3  1  3    -1.3398340348e-02
 3  2  1     0.0000000000e+00
 3  2  2     0.0000000000e+00
 3  2  3     7.7355354064e-03
 3  3  1     1.0507020154e-01
 3  3  2    -6.0662309141e-02
 3  3  3     0.0000000000e+00

   11
0.0000000000e+00 0.0000000000e+00 0.0000000000e+00
-2.4432895550e+00 0.0000000000e+00 0.0000000000e+00
     1      1      4
 1  1  1    -1.7656729142e-02
 1  1  2     6.4067011298e-03
 1  1  3     6.1977817462e-02
 1  2  1    -1.0515300791e-02
 1  2  2     3.8843459837e-03
 1  2  3     1.3678174298e-02
 1  3  1    -6.3001432713e-02
 1  3  2     2.3272007451e-02
 1  3  3     8.3216042762e-02
 2  1  1    -1.0515300791e-02
 2  1  2     3.8843459837e-03
 2  1  3     1.3678174298e-02
 2  2  1    -2.5425421110e-02
 2  2  2     1.8466789915e-02
 2  2  3     7.7772012688e-02
 2  3  1     2.3272007451e-02
 2  3  2    -3.6129233181e-02
 2  3  3    -4.8044804689e-02
 3  1  1    -6.3001432713e-02
 3  1  2     2.3272007451e-02
 3  1  3     8.3216042762e-02
 3  2  1     2.3272007451e-02
 3  2  2    -3.6129233181e-02
 3  2  3    -4.8044804689e-02
 3  3  1     3.0020253813e-01
 3  3  2    -1.7332201620e-01
 3  3  3    -2.6095128535e-01

   12
0.0000000000e+00 0.0000000000e+00 0.0000000000e+00
-1.2216447775e+00 2.1159508234e+00 0.0000000000e+00
     1      1      1
 1  1  1    -2.6264302564e+00
 1  1  2    -9.2453490091e-01
 1  1  3     0.0000000000e+00
 1  2  1    -2.1558233729e+00
 1  2  2     4.3837716429e+00
 1  2  3     0.0000000000e+00
 1  3  1     0.0000000000e+00
 1  3  2     0.0000000000e+00
 1  3  3    -2.0123297403e+00
 2  1  1    -2.1558233729e+00
 2  1  2     4.3837716429e+00
 2  1  3     0.0000000000e+00
 2  2  1     6.4501417344e+00
 2  2  2    -6.5720032012e+00
 2  2  3     0.0000000000e+00
 2  3  1     0.0000000000e+00
 2  3  2     0.0000000000e+00
 2  3  3     1.4690554050e+00
 3  1  1     0.0000000000e+00
 3  1  2     0.0000000000e+00
 3  1  3    -2.0123297403e+00
 3  2  1     0.0000000000e+00
 3  2  2     0.0000000000e+00
 3  2  3     1.4690554050e+00
 3  3  1    -3.3487002346e-01
 3  3  2    -6.0574109515e-01
 3  3  3     0.0000000000e+00

   13
0.0000000000e+00 0.0000000000e+00 0.0000000000e+00
-1.2216447775e+00 2.1159508234e+00 0.0000000000e+00
     1      1      2
 1  1  1     2.7753698254e-03
 1  1  2    -3.3280961780e-02
 1  1  3    -2.1800839818e-02
 1  2  1    -8.2817184535e-03
 1  2  2    -4.8509537623e-03
 1  2  3    -2.0361777835e-02
 1  3  1    -1.3989298191e-02
 1  3  2    -6.3437989774e-04
 1  3  3    -8.4623186566e-03
 2  1  1    -8.2817184535e-03
 2  1  2    -4.8509537623e-03
 2  1  3    -2.0361777835e-02
 2  2  1     1.3853804825e-02
 2  2  2     9.6498376900e-03
 2  2  3     5.0166532873e-02
 2  3  1     3.4702945537e-03
 2  3  2     3.7055946303e-02
 2  3  3     6.9420658919e-03
 3  1  1    -1.3989298191e-02
 3  1  2    -6.3437989774e-04
 3  1  3    -8.4623186566e-03
 3  2  1     3.4702945537e-03
 3  2  2     3.7055946303e-02
 3  2  3     6.9420658919e-03
 3  3  1    -2.3698857236e-04
 3  3  2     6.3521901635e-02
 3  3  3     5.1422065233e-03

   14
0.0000000000e+00 0.0000000000e+00 0.0000000000e+00
-1.2216447775e+00 2.1159508234e+00 0.0000000000e+00
     1      1      3
 1  1  1     1.1598696717e-01
 1  1  2    -7.9084605049e-01
 1  1  3     0.0000000000e+00
 1  2  1    -4.8687891509e-01
 1  2  2     7.5722416032e-02
 1  2  3     0.0000000000e+00
 1  3  1     0.0000000000e+00
 1  3  2     0.0000000000e+00
 1  3  3    -1.3362482603e-01
 2  1  1    -4.8687891509e-01
 2  1  2     7.5722416032e-02
 2  1  3     0.0000000000e+00
 2  2  1     4.9389826752e-01
 2  2  2     1.1977620108e+00
 2  2  3     0.0000000000e+00
 2  3  1     0.0000000000e+00
 2  3  2     0.0000000000e+00
 2  3  3    -9.9156418891e-02
 3  1  1     0.0000000000e+00
 3  1  2     0.0000000000e+00
 3  1  3    -1.3362482603e-01
 3  2  1     0.0000000000e+00
 3  2  2     0.0000000000e+00
 3  2  3    -9.9156418891e-02
 3  3  1     1.6915674388e-01
 3  3  2    -1.8403258252e-01
 3  3  3     0.0000000000e+00

   15
0.0000000000e+00 0.0000000000e+00 0.0000000000e+00
1.2216447775e+00 2.1159508234e+00 0.0000000000e+00
     1      1      1
 1  1  1     2.6264302564e+00
 1  1  2    -9.2453490091e-01
 1  1  3     0.0000000000e+00
 1  2  1    -2.1558233729e+00
 1  2  2    -4.3837716429e+00
 1  2  3     0.0000000000e+00
 1  3  1     0.0000000000e+00
 1  3  2     0.0000000000e+00
 1  3  3     2.0123297403e+00
 2  1  1    -2.1558233729e+00
 2  1  2    -4.3837716429e+00
 2  1  3     0.0000000000e+00
 2  2  1    -6.4501417344e+00
 2  2  2    -6.5720032012e+00
 2  2  3     0.0000000000e+00
 2  3  1     0.0000000000e+00
 2  3  2     0.0000000000e+00
 2  3  3     1.4690554050e+00
 3  1  1     0.0000000000e+00
 3  1  2     0.0000000000e+00
 3  1  3     2.0123297403e+00
 3  2  1     0.0000000000e+00
 3  2  2     0.0000000000e+00
 3  2  3     1.4690554050e+00
 3  3  1     3.3487002346e-01
 3  3  2    -6.0574109515e-01
 3  3  3     0.0000000000e+00

   16
0.0000000000e+00 0.0000000000e+00 0.0000000000e+00
1.2216447775e+00 2.1159508234e+00 0.0000000000e+00
     1      1      2
 1  1  1    -2.7753698254e-03
 1  1  2    -3.3280961780e-02
 1  1  3    -2.1800839818e-02
 1  2  1    -8.2817184535e-03
 1  2  2     4.8509537623e-03
 1  2  3     2.0361777835e-02
 1  3  1    -1.3989298191e-02
 1  3  2     6.3437989774e-04
 1  3  3     8.4623186566e-03
 2  1  1    -8.2817184535e-03
 2  1  2     4.8509537623e-03
 2  1  3     2.0361777835e-02
 2  2  1    -1.3853804825e-02
 2  2  2     9.6498376900e-03
 2  2  3     5.0166532873e-02
 2  3  1    -3.4702945537e-03
 2  3  2     3.7055946303e-02
 2  3  3     6.9420658919e-03
 3  1  1    -1.3989298191e-02
 3  1  2     6.3437989774e-04
 3  1  3     8.4623186566e-03
 3  2  1    -3.4702945537e-03
 3  2  2     3.7055946303e-02
 3  2  3     6.9420658919e-03
 3  3  1     2.3698857236e-04
 3  3  2     6.3521901635e-02
 3  3  3     5.1422065233e-03

   17
0.0000000000e+00 0.0000000000e+00 0.0000000000e+00
1.2216447775e+00 2.1159508234e+00 0.0000000000e+00
     1      1      3
 1  1  1    -1.1598696717e-01
 1  1  2    -7.9084605049e-01
 1  1  3     0.0000000000e+00
 1  2  1    -4.8687891509e-01
 1  2  2    -7.5722416032e-02
 1  2  3     0.0000000000e+00
 1  3  1     0.0000000000e+00
 1  3  2     0.0000000000e+00
 1  3  3     1.3362482603e-01
 2  1  1    -4.8687891509e-01
 2  1  2    -7.5722416032e-02
 2  1  3     0.0000000000e+00
 2  2  1    -4.9389826752e-01
 2  2  2     1.1977620108e+00
 2  2  3     0.0000000000e+00
 2  3  1     0.0000000000e+00
 2  3  2     0.0000000000e+00
 2  3  3    -9.9156418891e-02
 3  1  1     0.0000000000e+00
 3  1  2     0.0000000000e+00
 3  1  3     1.3362482603e-01
 3  2  1     0.0000000000e+00
 3  2  2     0.0000000000e+00
 3  2  3    -9.9156418891e-02
 3  3  1    -1.6915674388e-01
 3  3  2    -1.8403258252e-01
 3  3  3     0.0000000000e+00

   18
0.0000000000e+00 0.0000000000e+00 0.0000000000e+00
2.4432895550e+00 -4.2319016468e+00 0.0000000000e+00
     1      1      3
 1  1  1     6.5242333298e-01
 1  1  2    -4.0234470209e-01
 1  1  3     0.0000000000e+00
 1  2  1    -9.1647918043e-01
 1  2  2     5.9074178663e-02
 1  2  3     0.0000000000e+00
 1  3  1     0.0000000000e+00
 1  3  2     0.0000000000e+00
 1  3  3    -1.5268439072e-01
 2  1  1    -9.1647918043e-01
 2  1  2     5.9074178663e-02
 2  1  3     0.0000000000e+00
 2  2  1     4.9188432336e-03
 2  2  2     7.2706282855e-01
 2  2  3     0.0000000000e+00
 2  3  1     0.0000000000e+00
 2  3  2     0.0000000000e+00
 2  3  3    -6.6144284477e-02
 3  1  1     0.0000000000e+00
 3  1  2     0.0000000000e+00
 3  1  3    -1.5268439072e-01
 3  2  1     0.0000000000e+00
 3  2  2     0.0000000000e+00
 3  2  3    -6.6144284477e-02
 3  3  1    -7.4798519648e-02
 3  3  2     2.3851032869e-01
 3  3  3     0.0000000000e+00

   19
0.0000000000e+00 0.0000000000e+00 0.0000000000e+00
-2.4432895550e+00 -4.2319016468e+00 0.0000000000e+00
     1      1      3
 1  1  1    -6.5242333298e-01
 1  1  2    -4.0234470209e-01
 1  1  3     0.0000000000e+00
 1  2  1    -9.1647918043e-01
 1  2  2    -5.9074178663e-02
 1  2  3     0.0000000000e+00
 1  3  1     0.0000000000e+00
 1  3  2     0.0000000000e+00
 1  3  3     1.5268439072e-01
 2  1  1    -9.1647918043e-01
 2  1  2    -5.9074178663e-02
 2  1  3     0.0000000000e+00
 2  2  1    -4.9188432336e-03
 2  2  2     7.2706282855e-01
 2  2  3     0.0000000000e+00
 2  3  1     0.0000000000e+00
 2  3  2     0.0000000000e+00
 2  3  3    -6.6144284477e-02
 3  1  1     0.0000000000e+00
 3  1  2     0.0000000000e+00
 3  1  3     1.5268439072e-01
 3  2  1     0.0000000000e+00
 3  2  2     0.0000000000e+00
 3  2  3    -6.6144284477e-02
 3  3  1     7.4798519648e-02
 3  3  2     2.3851032869e-01
 3  3  3     0.0000000000e+00

   20
0.0000000000e+00 0.0000000000e+00 0.0000000000e+00
0.0000000000e+00 -4.2319016468e+00 0.0000000000e+00
     1      1      3
 1  1  1     0.0000000000e+00
 1  1  2    -1.3039166902e+00
 1  1  3     0.0000000000e+00
 1  2  1     2.1443271506e+00
 1  2  2     0.0000000000e+00
 1  2  3     0.0000000000e+00
 1  3  1     0.0000000000e+00
 1  3  2     0.0000000000e+00
 1  3  3     0.0000000000e+00
 2  1  1     2.1443271506e+00
 2  1  2     0.0000000000e+00
 2  1  3     0.0000000000e+00
 2  2  1     0.0000000000e+00
 2  2  2     1.8162904169e+00
 2  2  3     0.0000000000e+00
 2  3  1     0.0000000000e+00
 2  3  2     0.0000000000e+00
 2  3  3    -1.5471070813e-02
 3  1  1     0.0000000000e+00
 3  1  2     0.0000000000e+00
 3  1  3     0.0000000000e+00
 3  2  1     0.0000000000e+00
 3  2  2     0.0000000000e+00
 3  2  3    -1.5471070813e-02
 3  3  1     0.0000000000e+00
 3  3  2     1.2132461828e-01
 3  3  3     0.0000000000e+00

   21
0.0000000000e+00 0.0000000000e+00 0.0000000000e+00
1.2216447775e+00 -2.1159508234e+00 0.0000000000e+00
     1      1      1
 1  1  1    -2.3979775194e-02
 1  1  2     2.6858228490e+00
 1  1  3     0.0000000000e+00
 1  2  1     1.5119380921e+00
 1  2  2    -6.6558690646e+00
 1  2  3     0.0000000000e+00
 1  3  1     0.0000000000e+00
 1  3  2     0.0000000000e+00
 1  3  3     2.6607443012e-01
 2  1  1     1.5119380921e+00
 2  1  2    -6.6558690646e+00
 2  1  3     0.0000000000e+00
 2  2  1    -4.5563569227e+00
 2  2  2     4.3738774787e+00
 2  2  3     0.0000000000e+00
 2  3  1     0.0000000000e+00
 2  3  2     0.0000000000e+00
 2  3  3    -2.4772563784e+00
 3  1  1     0.0000000000e+00
 3  1  2     0.0000000000e+00
 3  1  3     2.6607443012e-01
 3  2  1     0.0000000000e+00
 3  2  2     0.0000000000e+00
 3  2  3    -2.4772563784e+00
 3  3  1    -6.9202218824e-01
 3  3  2     1.2864600296e-02
 3  3  3     0.0000000000e+00

   22
0.0000000000e+00 0.0000000000e+00 0.0000000000e+00
1.2216447775e+00 -2.1159508234e+00 0.0000000000e+00
     1      1      2
 1  1  1    -2.6199927227e-03
 1  1  2     6.0298622255e-03
 1  1  3     1.4540872828e-02
 1  2  1    -2.2668555546e-02
 1  2  2     2.7670267685e-03
 1  2  3    -4.1343675414e-02
 1  3  1     2.5522622247e-02
 1  3  2    -1.9341923347e-02
 1  3  3     1.7808460888e-03
 2  1  1    -2.2668555546e-02
 2  1  2     2.7670267685e-03
 2  1  3    -4.1343675414e-02
 2  2  1    -9.5305737345e-03
 2  2  2     2.0186987511e-02
 2  2  3     1.3824820227e-02
 2  3  1    -2.3446597799e-02
 2  3  2    -2.4559741350e-03
 2  3  3    -1.0799615878e-02
 3  1  1     2.5522622247e-02
 3  1  2    -1.9341923347e-02
 3  1  3     1.7808460888e-03
 3  2  1    -2.3446597799e-02
 3  2  2    -2.4559741350e-03
 3  2  3    -1.0799615878e-02
 3  3  1     5.4893086226e-02
 3  3  2    -3.1966188941e-02
 3  3  3     5.1422065233e-03

   23
0.0000000000e+00 0.0000000000e+00 0.0000000000e+00
1.2216447775e+00 -2.1159508234e+00 0.0000000000e+00
     1      1      3
 1  1  1    -1.2171394219e+02
 1  1  2     8.3986238253e+01
 1  1  3     0.0000000000e+00
 1  2  1     8.2532824238e+01
 1  2  2    -3.9732185091e+01
 1  2  3     0.0000000000e+00
 1  3  1     0.0000000000e+00
 1  3  2     0.0000000000e+00
 1  3  3     1.4192919905e+01
 2  1  1     8.2532824238e+01
 2  1  2    -3.9732185091e+01
 2  1  3     0.0000000000e+00
 2  2  1    -4.2249572010e+01
 2  2  2     1.0678140808e+01
 2  2  3     0.0000000000e+00
 2  3  1     0.0000000000e+00
 2  3  2     0.0000000000e+00
 2  3  3    -8.1942861276e+00
 3  1  1     0.0000000000e+00
 3  1  2     0.0000000000e+00
 3  1  3     1.4192919905e+01
 3  2  1     0.0000000000e+00
 3  2  2     0.0000000000e+00
 3  2  3    -8.1942861276e+00
 3  3  1     1.2110667119e+01
 3  3  2    -6.9920969213e+00
 3  3  3     0.0000000000e+00

   24
0.0000000000e+00 0.0000000000e+00 0.0000000000e+00
3.6649343325e+00 -2.1159508234e+00 0.0000000000e+00
     1      1      3
 1  1  1     1.3941926650e-01
 1  1  2    -1.0285836660e+00
 1  1  3     0.0000000000e+00
 1  2  1    -8.1841632311e-01
 1  2  2     3.8036886194e-01
 1  2  3     0.0000000000e+00
 1  3  1     0.0000000000e+00
 1  3  2     0.0000000000e+00
 1  3  3    -1.9059564690e-02
 2  1  1    -8.1841632311e-01
 2  1  2     3.8036886194e-01
 2  1  3     0.0000000000e+00
 2  2  1    -9.1962324975e-02
 2  2  2     2.9694957924e-01
 2  2  3     0.0000000000e+00
 2  3  1     0.0000000000e+00
 2  3  2     0.0000000000e+00
 2  3  3     1.6530070337e-01
 3  1  1     0.0000000000e+00
 3  1  2     0.0000000000e+00
 3  1  3    -1.9059564690e-02
 3  2  1     0.0000000000e+00
 3  2  2     0.0000000000e+00
 3  2  3     1.6530070337e-01
 3  3  1    -2.4395526353e-01
 3  3  2    -5.4477746162e-02
 3  3  3     0.0000000000e+00

   25
0.0000000000e+00 0.0000000000e+00 0.0000000000e+00
-3.6649343325e+00 -2.1159508234e+00 0.0000000000e+00
     1      1      3
 1  1  1    -1.3941926650e-01
 1  1  2    -1.0285836660e+00
 1  1  3     0.0000000000e+00
 1  2  1    -8.1841632311e-01
 1  2  2    -3.8036886194e-01
 1  2  3     0.0000000000e+00
 1  3  1     0.0000000000e+00
 1  3  2     0.0000000000e+00
 1  3  3     1.9059564690e-02
 2  1  1    -8.1841632311e-01
 2  1  2    -3.8036886194e-01
 2  1  3     0.0000000000e+00
 2  2  1     9.1962324975e-02
 2  2  2     2.9694957924e-01
 2  2  3     0.0000000000e+00
 2  3  1     0.0000000000e+00
 2  3  2     0.0000000000e+00
 2  3  3     1.6530070337e-01
 3  1  1     0.0000000000e+00
 3  1  2     0.0000000000e+00
 3  1  3     1.9059564690e-02
 3  2  1     0.0000000000e+00
 3  2  2     0.0000000000e+00
 3  2  3     1.6530070337e-01
 3  3  1     2.4395526353e-01
 3  3  2    -5.4477746162e-02
 3  3  3     0.0000000000e+00

   26
0.0000000000e+00 0.0000000000e+00 0.0000000000e+00
-1.2216447775e+00 -2.1159508234e+00 0.0000000000e+00
     1      1      1
 1  1  1     2.3979775194e-02
 1  1  2     2.6858228490e+00
 1  1  3     0.0000000000e+00
 1  2  1     1.5119380921e+00
 1  2  2     6.6558690646e+00
 1  2  3     0.0000000000e+00
 1  3  1     0.0000000000e+00
 1  3  2     0.0000000000e+00
 1  3  3    -2.6607443012e-01
 2  1  1     1.5119380921e+00
 2  1  2     6.6558690646e+00
 2  1  3     0.0000000000e+00
 2  2  1     4.5563569227e+00
 2  2  2     4.3738774787e+00
 2  2  3     0.0000000000e+00
 2  3  1     0.0000000000e+00
 2  3  2     0.0000000000e+00
 2  3  3    -2.4772563784e+00
 3  1  1     0.0000000000e+00
 3  1  2     0.0000000000e+00
 3  1  3    -2.6607443012e-01
 3  2  1     0.0000000000e+00
 3  2  2     0.0000000000e+00
 3  2  3    -2.4772563784e+00
 3  3  1     6.9202218824e-01
 3  3  2     1.2864600296e-02
 3  3  3     0.0000000000e+00

   27
0.0000000000e+00 0.0000000000e+00 0.0000000000e+00
-1.2216447775e+00 -2.1159508234e+00 0.0000000000e+00
     1      1      2
 1  1  1     2.6199927227e-03
 1  1  2     6.0298622255e-03
 1  1  3     1.4540872828e-02
 1  2  1    -2.2668555546e-02
 1  2  2    -2.7670267685e-03
 1  2  3     4.1343675414e-02
 1  3  1     2.5522622247e-02
 1  3  2     1.9341923347e-02
 1  3  3    -1.7808460888e-03
 2  1  1    -2.2668555546e-02
 2  1  2    -2.7670267685e-03
 2  1  3     4.1343675414e-02
 2  2  1     9.5305737345e-03
 2  2  2     2.0186987511e-02
 2  2  3     1.3824820227e-02
 2  3  1     2.3446597799e-02
 2  3  2    -2.4559741350e-03
 2  3  3    -1.0799615878e-02
 3  1  1     2.5522622247e-02
 3  1  2     1.9341923347e-02
 3  1  3    -1.7808460888e-03
 3  2  1     2.3446597799e-02
 3  2  2    -2.4559741350e-03
 3  2  3    -1.0799615878e-02
 3  3  1    -5.4893086226e-02
 3  3  2    -3.1966188941e-02
 3  3  3     5.1422065233e-03

   28
0.0000000000e+00 0.0000000000e+00 0.0000000000e+00
-1.2216447775e+00 -2.1159508234e+00 0.0000000000e+00
     1      1      3
 1  1  1     1.2171394219e+02
 1  1  2     8.3986238253e+01
 1  1  3     0.0000000000e+00
 1  2  1     8.2532824238e+01
 1  2  2     3.9732185091e+01
 1  2  3     0.0000000000e+00
 1  3  1     0.0000000000e+00
 1  3  2     0.0000000000e+00
 1  3  3    -1.4192919905e+01
 2  1  1     8.2532824238e+01
 2  1  2     3.9732185091e+01
 2  1  3     0.0000000000e+00
 2  2  1     4.2249572010e+01
 2  2  2     1.0678140808e+01
 2  2  3     0.0000000000e+00
 2  3  1     0.0000000000e+00
 2  3  2     0.0000000000e+00
 2  3  3    -8.1942861276e+00
 3  1  1     0.0000000000e+00
 3  1  2     0.0000000000e+00
 3  1  3    -1.4192919905e+01
 3  2  1     0.0000000000e+00
 3  2  2     0.0000000000e+00
 3  2  3    -8.1942861276e+00
 3  3  1    -1.2110667119e+01
 3  3  2    -6.9920969213e+00
 3  3  3     0.0000000000e+00

   29
0.0000000000e+00 0.0000000000e+00 0.0000000000e+00
-1.2216447775e+00 -2.1159508234e+00 0.0000000000e+00
     1      1      4
 1  1  1     0.0000000000e+00
 1  1  2    -3.7631420036e-02
 1  1  3     8.5669110301e-02
 1  2  1    -3.7874161935e-03
 1  2  2     0.0000000000e+00
 1  2  3     0.0000000000e+00
 1  3  1    -2.2693133415e-02
 1  3  2     0.0000000000e+00
 1  3  3     0.0000000000e+00
 2  1  1    -3.7874161935e-03
 2  1  2     0.0000000000e+00
 2  1  3     0.0000000000e+00
 2  2  1     0.0000000000e+00
 2  2  2    -1.2115562055e-02
 2  2  3     5.4080719849e-02
 2  3  1     0.0000000000e+00
 2  3  2    -7.6437532480e-02
 2  3  3     9.6089609379e-02
 3  1  1    -2.2693133415e-02
 3  1  2     0.0000000000e+00
 3  1  3     0.0000000000e+00
 3  2  1     0.0000000000e+00
 3  2  2    -7.6437532480e-02
 3  2  3     9.6089609379e-02
 3  3  1     0.0000000000e+00
 3  3  2     3.4664403240e-01
 3  3  3    -2.6095128535e-01

   30
0.0000000000e+00 0.0000000000e+00 0.0000000000e+00
0.0000000000e+00 0.0000000000e+00 -6.2432304148e+00
     1      1      2
 1  1  1     0.0000000000e+00
 1  1  2     1.9926040192e-02
 1  1  3    -1.7323426808e-01
 1  2  1     1.9926040192e-02
 1  2  2     0.0000000000e+00
 1  2  3     0.0000000000e+00
 1  3  1    -9.9036445544e-02
 1  3  2     0.0000000000e+00
 1  3  3     0.0000000000e+00
 2  1  1     1.9926040192e-02
 2  1  2     0.0000000000e+00
 2  1  3     0.0000000000e+00
 2  2  1     0.0000000000e+00
 2  2  2    -1.9926040192e-02
 2  2  3    -1.7323426808e-01
 2  3  1     0.0000000000e+00
 2  3  2    -9.9036445544e-02
 2  3  3     0.0000000000e+00
 3  1  1    -9.9036445544e-02
 3  1  2     0.0000000000e+00
 3  1  3     0.0000000000e+00
 3  2  1     0.0000000000e+00
 3  2  2    -9.9036445544e-02
 3  2  3     0.0000000000e+00
 3  3  1     0.0000000000e+00
 3  3  2     0.0000000000e+00
 3  3  3    -8.5489183451e-02

   31
0.0000000000e+00 0.0000000000e+00 0.0000000000e+00
0.0000000000e+00 0.0000000000e+00 -6.2432304148e+00
     1      1      4
 1  1  1     1.7656729142e-02
 1  1  2     6.4067011298e-03
 1  1  3    -6.1977817462e-02
 1  2  1    -1.0515300791e-02
 1  2  2    -3.8843459837e-03
 1  2  3     1.3678174298e-02
 1  3  1     6.3001432713e-02
 1  3  2     2.3272007451e-02
 1  3  3    -8.3216042762e-02
 2  1  1    -1.0515300791e-02
 2  1  2    -3.8843459837e-03
 2  1  3     1.3678174298e-02
 2  2  1     2.5425421110e-02
 2  2  2     1.8466789915e-02
 2  2  3    -7.7772012688e-02
 2  3  1     2.3272007451e-02
 2  3  2     3.6129233181e-02
 2  3  3    -4.8044804689e-02
 3  1  1     6.3001432713e-02
 3  1  2     2.3272007451e-02
 3  1  3    -8.3216042762e-02
 3  2  1     2.3272007451e-02
 3  2  2     3.6129233181e-02
 3  2  3    -4.8044804689e-02
 3  3  1    -3.0020253813e-01
 3  3  2    -1.7332201620e-01
 3  3  3     2.6095128535e-01

   32
0.0000000000e+00 0.0000000000e+00 0.0000000000e+00
2.4432895550e+00 0.0000000000e+00 -6.2432304148e+00
     1      1      2
 1  1  1    -6.4277581542e-03
 1  1  2    -1.7369577728e-02
 1  1  3    -4.9808506572e-02
 1  2  1    -1.3670403283e-02
 1  2  2     8.6503761369e-03
 1  2  3     2.0981897579e-02
 1  3  1    -2.3066648112e-02
 1  3  2     2.4864555127e-02
 1  3  3     1.0243164745e-02
 2  1  1    -1.3670403283e-02
 2  1  2     8.6503761369e-03
 2  1  3     2.0981897579e-02
 2  2  1    -2.2351982953e-02
 2  2  2     1.4783852082e-02
 2  2  3     2.1442813517e-02
 2  3  1     2.0759880675e-02
 2  3  2    -5.4210108624e-17
 2  3  3     3.8575499856e-03
 3  1  1    -2.3066648112e-02
 3  1  2     2.4864555127e-02
 3  1  3     1.0243164745e-02
 3  2  1     2.0759880675e-02
 3  2  2    -5.4210108624e-17