   0.32871E+01   0.20907E-02   0.20907E-02
   0.65742E+01   0.31895E-02   0.31895E-02
   0.98613E+01   0.38809E-02   0.38809E-02
   0.13148E+02   0.41737E-02   0.41737E-02
   0.16436E+02   0.44241E-02   0.44241E-02
   0.19723E+02   0.45699E-02   0.45699E-02
   0.23010E+02   0.45069E-02   0.45069E-02
   0.26297E+02   0.47089E-02   0.47089E-02
   0.29584E+02   0.50892E-02   0.50892E-02
   0.32871E+02   0.50891E-02   0.50891E-02
   0.36158E+02   0.54276E-02   0.54276E-02
   0.39445E+02   0.56780E-02   0.56780E-02
   0.42732E+02   0.58883E-02   0.58883E-02
   0.46019E+02   0.60873E-02   0.60873E-02
   0.49307E+02   0.62538E-02   0.62538E-02
   0.52594E+02   0.65056E-02   0.65056E-02
   0.55881E+02   0.68647E-02   0.68647E-02
   0.59168E+02   0.71486E-02   0.71486E-02
   0.62455E+02   0.73235E-02   0.73235E-02
   0.65742E+02   0.76754E-02   0.76754E-02
   0.69029E+02   0.82380E-02   0.82380E-02
   0.72316E+02   0.88226E-02   0.88226E-02
   0.75603E+02   0.92958E-02   0.92958E-02
   0.78891E+02   0.98127E-02   0.98127E-02
   0.82178E+02   0.10818E-01   0.10818E-01
   0.85465E+02   0.11625E-01   0.11625E-01
   0.88752E+02   0.14189E-01   0.14189E-01
   0.92039E+02   0.12350E-01   0.12350E-01
   0.95326E+02   0.80307E-02   0.80307E-02
   0.98613E+02   0.67353E-02   0.67353E-02
   0.10190E+03   0.58253E-02   0.58253E-02
   0.10519E+03   0.63155E-02   0.63155E-02
   0.10847E+03   0.78001E-02   0.78001E-02
   0.11176E+03   0.10060E-01   0.10060E-01
   0.11505E+03   0.13334E-01   0.13334E-01
   0.11834E+03   0.18291E-01   0.18291E-01
   0.12162E+03   0.19290E-01   0.19290E-01
   0.12491E+03   0.17586E-01   0.17586E-01
   0.12820E+03   0.15924E-01   0.15924E-01
   0.13148E+03   0.14815E-01   0.14815E-01
   0.13477E+03   0.14236E-01   0.14236E-01
   0.13806E+03   0.14111E-01   0.14111E-01
   0.14135E+03   0.13509E-01   0.13509E-01
   0.14463E+03   0.13621E-01   0.13621E-01
   0.14792E+03   0.13662E-01   0.13662E-01
   0.15121E+03   0.13915E-01   0.13915E-01
   0.15449E+03   0.14244E-01   0.14244E-01
   0.15778E+03   0.14274E-01   0.14274E-01
   0.16107E+03   0.15198E-01   0.15198E-01
   0.16436E+03   0.15625E-01   0.15625E-01
   0.16764E+03   0.17077E-01   0.17077E-01
   0.17093E+03   0.50910E-02   0.50910E-02
   0.17422E+03   0.47787E-02   0.47787E-02
   0.17750E+03   0.48456E-02   0.48456E-02
   0.18079E+03   0.47941E-02   0.47941E-02
   0.18408E+03   0.48431E-02   0.48431E-02
   0.18737E+03   0.35219E-02   0.35219E-02
   0.19065E+03   0.37183E-02   0.37183E-02
   0.19394E+03   0.38568E-02   0.38568E-02
   0.19723E+03   0.40373E-02   0.40373E-02
   0.20051E+03   0.42835E-02   0.42835E-02
   0.20380E+03   0.45593E-02   0.45593E-02
   0.20709E+03   0.47883E-02   0.47883E-02
   0.21037E+03   0.52031E-02   0.52031E-02
   0.21366E+03   0.55418E-02   0.55418E-02
   0.21695E+03   0.60379E-02   0.60379E-02
   0.22024E+03   0.65266E-02   0.65266E-02
   0.22352E+03   0.78820E-02   0.78820E-02
   0.22681E+03   0.59613E-02   0.59613E-02
   0.23010E+03   0.59031E-02   0.59031E-02
   0.23338E+03   0.61560E-02   0.61560E-02
   0.23667E+03   0.57831E-02   0.57831E-02
   0.23996E+03   0.63085E-02   0.63085E-02
   0.24325E+03   0.65454E-02   0.65454E-02
   0.24653E+03   0.14273E-01   0.14273E-01
   0.24982E+03   0.15781E-01   0.15781E-01
   0.25311E+03   0.18423E-01   0.18423E-01
   0.25639E+03   0.24335E-01   0.24335E-01
   0.25968E+03   0.29814E-01   0.29814E-01
   0.26297E+03   0.21261E-01   0.21261E-01
   0.26626E+03   0.18139E-01   0.18139E-01
   0.26954E+03   0.16681E-01   0.16681E-01
   0.27283E+03   0.14521E-01   0.14521E-01
   0.27612E+03   0.13681E-01   0.13681E-01
   0.27940E+03   0.13122E-01   0.13122E-01
   0.28269E+03   0.13424E-01   0.13424E-01
   0.28598E+03   0.12412E-01   0.12412E-01
   0.28927E+03   0.13391E-01   0.13391E-01
   0.29255E+03   0.12724E-01   0.12724E-01
   0.29584E+03   0.16614E-01   0.16614E-01
   0.29913E+03   0.00000E+00   0.00000E+00
   0.30241E+03   0.00000E+00   0.00000E+00
   0.30570E+03   0.00000E+00   0.00000E+00
   0.30899E+03   0.00000E+00   0.00000E+00
   0.31228E+03   0.00000E+00   0.00000E+00
   0.31556E+03   0.00000E+00   0.00000E+00
   0.31885E+03   0.00000E+00   0.00000E+00
   0.32214E+03   0.00000E+00   0.00000E+00
   0.32542E+03   0.00000E+00   0.00000E+00
   0.32871E+03   0.00000E+00   0.00000E+00
