  734

    1
0.0000000000e+00 0.0000000000e+00 0.0000000000e+00
0.0000000000e+00 0.0000000000e+00 0.0000000000e+00
     1      1      1
 1  1  1     0.0000000000e+00
 1  1  2    -1.5924141665e+02
 1  1  3     0.0000000000e+00
 1  2  1    -1.5924141665e+02
 1  2  2     0.0000000000e+00
 1  2  3     0.0000000000e+00
 1  3  1     0.0000000000e+00
 1  3  2     0.0000000000e+00
 1  3  3     0.0000000000e+00
 2  1  1    -1.5924141665e+02
 2  1  2     0.0000000000e+00
 2  1  3     0.0000000000e+00
 2  2  1     0.0000000000e+00
 2  2  2     1.5924141665e+02
 2  2  3     0.0000000000e+00
 2  3  1     0.0000000000e+00
 2  3  2     0.0000000000e+00
 2  3  3     0.0000000000e+00
 3  1  1     0.0000000000e+00
 3  1  2     0.0000000000e+00
 3  1  3     0.0000000000e+00
 3  2  1     0.0000000000e+00
 3  2  2     0.0000000000e+00
 3  2  3     0.0000000000e+00
 3  3  1     0.0000000000e+00
 3  3  2     0.0000000000e+00
 3  3  3     0.0000000000e+00

    2
0.0000000000e+00 0.0000000000e+00 0.0000000000e+00
0.0000000000e+00 0.0000000000e+00 0.0000000000e+00
     1      1      2
 1  1  1     0.0000000000e+00
 1  1  2     8.6710632823e+00
 1  1  3     0.0000000000e+00
 1  2  1     1.0187404957e+01
 1  2  2     0.0000000000e+00
 1  2  3     0.0000000000e+00
 1  3  1     0.0000000000e+00
 1  3  2     0.0000000000e+00
 1  3  3     0.0000000000e+00
 2  1  1     1.0187404957e+01
 2  1  2     0.0000000000e+00
 2  1  3     0.0000000000e+00
 2  2  1     0.0000000000e+00
 2  2  2    -1.8303743785e+02
 2  2  3     0.0000000000e+00
 2  3  1     0.0000000000e+00
 2  3  2     0.0000000000e+00
 2  3  3     1.3720121417e+01
 3  1  1     0.0000000000e+00
 3  1  2     0.0000000000e+00
 3  1  3     0.0000000000e+00
 3  2  1     0.0000000000e+00
 3  2  2     0.0000000000e+00
 3  2  3     1.3720121417e+01
 3  3  1     0.0000000000e+00
 3  3  2     1.1590769657e+01
 3  3  3     0.0000000000e+00

    3
0.0000000000e+00 0.0000000000e+00 0.0000000000e+00
2.4728947333e+00 0.0000000000e+00 0.0000000000e+00
     1      1      1
 1  1  1    -1.0353832835e+01
 1  1  2    -8.5960590671e-01
 1  1  3     0.0000000000e+00
 1  2  1     1.6503697843e+00
 1  2  2     2.6496186722e+00
 1  2  3     0.0000000000e+00
 1  3  1     0.0000000000e+00
 1  3  2     0.0000000000e+00
 1  3  3     2.3581193942e+00
 2  1  1     1.6503697843e+00
 2  1  2     2.6496186722e+00
 2  1  3     0.0000000000e+00
 2  2  1     1.9940663903e+00
 2  2  2     1.1904142231e+00
 2  2  3     0.0000000000e+00
 2  3  1     0.0000000000e+00
 2  3  2     0.0000000000e+00
 2  3  3     9.3600007184e-01
 3  1  1     0.0000000000e+00
 3  1  2     0.0000000000e+00
 3  1  3     2.3581193942e+00
 3  2  1     0.0000000000e+00
 3  2  2     0.0000000000e+00
 3  2  3     9.3600007184e-01
 3  3  1    -4.9102694384e-01
 3  3  2     5.3969730429e-01
 3  3  3     0.0000000000e+00

    4
0.0000000000e+00 0.0000000000e+00 0.0000000000e+00
2.4728947333e+00 0.0000000000e+00 0.0000000000e+00
     1      1      2
 1  1  1    -2.2606363197e+00
 1  1  2     1.1728533625e+00
 1  1  3     0.0000000000e+00
 1  2  1    -9.5404000217e-01
 1  2  2    -1.9815078965e+00
 1  2  3     0.0000000000e+00
 1  3  1     0.0000000000e+00
 1  3  2     0.0000000000e+00
 1  3  3     7.1985917789e-02
 2  1  1    -9.5404000217e-01
 2  1  2    -1.9815078965e+00
 2  1  3     0.0000000000e+00
 2  2  1     1.7023794734e+00
 2  2  2    -1.4951631030e+00
 2  2  3     0.0000000000e+00
 2  3  1     0.0000000000e+00
 2  3  2     0.0000000000e+00
 2  3  3     4.1561089013e-02
 3  1  1     0.0000000000e+00
 3  1  2     0.0000000000e+00
 3  1  3     7.1985917789e-02
 3  2  1     0.0000000000e+00
 3  2  2     0.0000000000e+00
 3  2  3     4.1561089013e-02
 3  3  1    -6.2907460899e-02
 3  3  2    -3.6319639484e-02
 3  3  3     0.0000000000e+00

    5
0.0000000000e+00 0.0000000000e+00 0.0000000000e+00
-2.4728947333e+00 0.0000000000e+00 0.0000000000e+00
     1      1      1
 1  1  1     1.0353832835e+01
 1  1  2    -8.5960590671e-01
 1  1  3     0.0000000000e+00
 1  2  1     1.6503697843e+00
 1  2  2    -2.6496186722e+00
 1  2  3     0.0000000000e+00
 1  3  1     0.0000000000e+00
 1  3  2     0.0000000000e+00
 1  3  3    -2.3581193942e+00
 2  1  1     1.6503697843e+00
 2  1  2    -2.6496186722e+00
 2  1  3     0.0000000000e+00
 2  2  1    -1.9940663903e+00
 2  2  2     1.1904142231e+00
 2  2  3     0.0000000000e+00
 2  3  1     0.0000000000e+00
 2  3  2     0.0000000000e+00
 2  3  3     9.3600007184e-01
 3  1  1     0.0000000000e+00
 3  1  2     0.0000000000e+00
 3  1  3    -2.3581193942e+00
 3  2  1     0.0000000000e+00
 3  2  2     0.0000000000e+00
 3  2  3     9.3600007184e-01
 3  3  1     4.9102694384e-01
 3  3  2     5.3969730429e-01
 3  3  3     0.0000000000e+00

    6
0.0000000000e+00 0.0000000000e+00 0.0000000000e+00
-2.4728947333e+00 0.0000000000e+00 0.0000000000e+00
     1      1      2
 1  1  1     2.2606363197e+00
 1  1  2     1.1728533625e+00
 1  1  3     0.0000000000e+00
 1  2  1    -9.5404000217e-01
 1  2  2     1.9815078965e+00
 1  2  3     0.0000000000e+00
 1  3  1     0.0000000000e+00
 1  3  2     0.0000000000e+00
 1  3  3    -7.1985917789e-02
 2  1  1    -9.5404000217e-01
 2  1  2     1.9815078965e+00
 2  1  3     0.0000000000e+00
 2  2  1    -1.7023794734e+00
 2  2  2    -1.4951631030e+00
 2  2  3     0.0000000000e+00
 2  3  1     0.0000000000e+00
 2  3  2     0.0000000000e+00
 2  3  3     4.1561089013e-02
 3  1  1     0.0000000000e+00
 3  1  2     0.0000000000e+00
 3  1  3    -7.1985917789e-02
 3  2  1     0.0000000000e+00
 3  2  2     0.0000000000e+00
 3  2  3     4.1561089013e-02
 3  3  1     6.2907460899e-02
 3  3  2    -3.6319639484e-02
 3  3  3     0.0000000000e+00

    7
0.0000000000e+00 0.0000000000e+00 0.0000000000e+00
-1.2364473666e+00 2.1415896599e+00 0.0000000000e+00
     1      1      1
 1  1  1    -2.7424774562e+00
 1  1  2    -1.1949822496e+00
 1  1  3     0.0000000000e+00
 1  2  1    -1.8822451654e+00
 1  2  2     4.1343934203e+00
 1  2  3     0.0000000000e+00
 1  3  1     0.0000000000e+00
 1  3  2     0.0000000000e+00
 1  3  3    -1.9896595373e+00
 2  1  1    -1.8822451654e+00
 2  1  2     4.1343934203e+00
 2  1  3     0.0000000000e+00
 2  2  1     6.6358722726e+00
 2  2  2    -6.2101920192e+00
 2  2  3     0.0000000000e+00
 2  3  1     0.0000000000e+00
 2  3  2     0.0000000000e+00
 2  3  3     1.5741912646e+00
 3  1  1     0.0000000000e+00
 3  1  2     0.0000000000e+00
 3  1  3    -1.9896595373e+00
 3  2  1     0.0000000000e+00
 3  2  2     0.0000000000e+00
 3  2  3     1.5741912646e+00
 3  3  1    -2.2187810394e-01
 3  3  2    -6.9509045946e-01
 3  3  3     0.0000000000e+00

    8
0.0000000000e+00 0.0000000000e+00 0.0000000000e+00
-1.2364473666e+00 2.1415896599e+00 0.0000000000e+00
     1      1      2
 1  1  1     1.0541523373e-01
 1  1  2    -9.0798532279e-01
 1  1  3     0.0000000000e+00
 1  2  1    -4.6193729606e-01
 1  2  2     4.8628423237e-02
 1  2  3     0.0000000000e+00
 1  3  1     0.0000000000e+00
 1  3  2     0.0000000000e+00
 1  3  3    -1.5876502346e-01
 2  1  1    -4.6193729606e-01
 2  1  2     4.8628423237e-02
 2  1  3     0.0000000000e+00
 2  2  1     7.4131547998e-01
 2  2  2     1.1209823138e+00
 2  2  3     0.0000000000e+00
 2  3  1     0.0000000000e+00
 2  3  2     0.0000000000e+00
 2  3  3    -9.8961974064e-02
 3  1  1     0.0000000000e+00
 3  1  2     0.0000000000e+00
 3  1  3    -1.5876502346e-01
 3  2  1     0.0000000000e+00
 3  2  2     0.0000000000e+00
 3  2  3    -9.8961974064e-02
 3  3  1     1.4129895789e-01
 3  3  2    -1.5305475227e-01
 3  3  3     0.0000000000e+00

    9
0.0000000000e+00 0.0000000000e+00 0.0000000000e+00
1.2364473666e+00 2.1415896599e+00 0.0000000000e+00
     1      1      1
 1  1  1     2.7424774562e+00
 1  1  2    -1.1949822496e+00
 1  1  3     0.0000000000e+00
 1  2  1    -1.8822451654e+00
 1  2  2    -4.1343934203e+00
 1  2  3     0.0000000000e+00
 1  3  1     0.0000000000e+00
 1  3  2     0.0000000000e+00
 1  3  3     1.9896595373e+00
 2  1  1    -1.8822451654e+00
 2  1  2    -4.1343934203e+00
 2  1  3     0.0000000000e+00
 2  2  1    -6.6358722726e+00
 2  2  2    -6.2101920192e+00
 2  2  3     0.0000000000e+00
 2  3  1     0.0000000000e+00
 2  3  2     0.0000000000e+00
 2  3  3     1.5741912646e+00
 3  1  1     0.0000000000e+00
 3  1  2     0.0000000000e+00
 3  1  3     1.9896595373e+00
 3  2  1     0.0000000000e+00
 3  2  2     0.0000000000e+00
 3  2  3     1.5741912646e+00
 3  3  1     2.2187810394e-01
 3  3  2    -6.9509045946e-01
 3  3  3     0.0000000000e+00

   10
0.0000000000e+00 0.0000000000e+00 0.0000000000e+00
1.2364473666e+00 2.1415896599e+00 0.0000000000e+00
     1      1      2
 1  1  1    -1.0541523373e-01
 1  1  2    -9.0798532279e-01
 1  1  3     0.0000000000e+00
 1  2  1    -4.6193729606e-01
 1  2  2    -4.8628423237e-02
 1  2  3     0.0000000000e+00
 1  3  1     0.0000000000e+00
 1  3  2     0.0000000000e+00
 1  3  3     1.5876502346e-01
 2  1  1    -4.6193729606e-01
 2  1  2    -4.8628423237e-02
 2  1  3     0.0000000000e+00
 2  2  1    -7.4131547998e-01
 2  2  2     1.1209823138e+00
 2  2  3     0.0000000000e+00
 2  3  1     0.0000000000e+00
 2  3  2     0.0000000000e+00
 2  3  3    -9.8961974064e-02
 3  1  1     0.0000000000e+00
 3  1  2     0.0000000000e+00
 3  1  3     1.5876502346e-01
 3  2  1     0.0000000000e+00
 3  2  2     0.0000000000e+00
 3  2  3    -9.8961974064e-02
 3  3  1    -1.4129895789e-01
 3  3  2    -1.5305475227e-01
 3  3  3     0.0000000000e+00

   11
0.0000000000e+00 0.0000000000e+00 0.0000000000e+00
3.7093420999e+00 2.1415896599e+00 0.0000000000e+00
     1      1      1
 1  1  1     1.8222602378e-01
 1  1  2     3.2480351110e-01
 1  1  3     0.0000000000e+00
 1  2  1     5.5331452375e-01
 1  2  2     1.9267290259e-01
 1  2  3     0.0000000000e+00
 1  3  1     0.0000000000e+00
 1  3  2     0.0000000000e+00
 1  3  3    -8.6251750794e-02
 2  1  1     5.5331452375e-01
 2  1  2     1.9267290259e-01
 2  1  3     0.0000000000e+00
 2  2  1    -2.0311978140e-01
 2  2  2    -3.3686652769e-01
 2  2  3     0.0000000000e+00
 2  3  1     0.0000000000e+00
 2  3  2     0.0000000000e+00
 2  3  3    -4.9797471539e-02
 3  1  1     0.0000000000e+00
 3  1  2     0.0000000000e+00
 3  1  3    -8.6251750794e-02
 3  2  1     0.0000000000e+00
 3  2  2     0.0000000000e+00
 3  2  3    -4.9797471539e-02
 3  3  1    -2.9089501799e-02
 3  3  2    -1.6794831694e-02
 3  3  3     0.0000000000e+00

   12
0.0000000000e+00 0.0000000000e+00 0.0000000000e+00
-3.7093420999e+00 2.1415896599e+00 0.0000000000e+00
     1      1      1
 1  1  1    -1.8222602378e-01
 1  1  2     3.2480351110e-01
 1  1  3     0.0000000000e+00
 1  2  1     5.5331452375e-01
 1  2  2    -1.9267290259e-01
 1  2  3     0.0000000000e+00
 1  3  1     0.0000000000e+00
 1  3  2     0.0000000000e+00
 1  3  3     8.6251750794e-02
 2  1  1     5.5331452375e-01
 2  1  2    -1.9267290259e-01
 2  1  3     0.0000000000e+00
 2  2  1     2.0311978140e-01
 2  2  2    -3.3686652769e-01
 2  2  3     0.0000000000e+00
 2  3  1     0.0000000000e+00
 2  3  2     0.0000000000e+00
 2  3  3    -4.9797471539e-02
 3  1  1     0.0000000000e+00
 3  1  2     0.0000000000e+00
 3  1  3     8.6251750794e-02
 3  2  1     0.0000000000e+00
 3  2  2     0.0000000000e+00
 3  2  3    -4.9797471539e-02
 3  3  1     2.9089501799e-02
 3  3  2    -1.6794831694e-02
 3  3  3     0.0000000000e+00

   13
0.0000000000e+00 0.0000000000e+00 0.0000000000e+00
2.4728947333e+00 -4.2831793198e+00 0.0000000000e+00
     1      1      2
 1  1  1     6.5913159175e-01
 1  1  2    -1.7005830332e-01
 1  1  3     0.0000000000e+00
 1  2  1    -9.9296690470e-01
 1  2  2    -1.1360035630e-02
 1  2  3     0.0000000000e+00
 1  3  1     0.0000000000e+00
 1  3  2     0.0000000000e+00
 1  3  3    -1.6508609528e-01
 2  1  1    -9.9296690470e-01
 2  1  2    -1.1360035630e-02
 2  1  3     0.0000000000e+00
 2  2  1    -5.1305429714e-02
 2  2  2     7.9685011603e-01
 2  2  3     0.0000000000e+00
 2  3  1     0.0000000000e+00
 2  3  2     0.0000000000e+00
 2  3  3    -8.8013556512e-02
 3  1  1     0.0000000000e+00
 3  1  2     0.0000000000e+00
 3  1  3    -1.6508609528e-01
 3  2  1     0.0000000000e+00
 3  2  2     0.0000000000e+00
 3  2  3    -8.8013556512e-02
 3  3  1    -6.1899824687e-02
 3  3  2     1.9889586320e-01
 3  3  3     0.0000000000e+00

   14
0.0000000000e+00 0.0000000000e+00 0.0000000000e+00
0.0000000000e+00 4.2831793198e+00 0.0000000000e+00
     1      1      1
 1  1  1     0.0000000000e+00
 1  1  2     4.5086078835e-01
 1  1  3     0.0000000000e+00
 1  2  1    -4.1442761841e-02
 1  2  2     0.0000000000e+00
 1  2  3     0.0000000000e+00
 1  3  1     0.0000000000e+00
 1  3  2     0.0000000000e+00
 1  3  3     0.0000000000e+00
 2  1  1    -4.1442761841e-02
 2  1  2     0.0000000000e+00
 2  1  3     0.0000000000e+00
 2  2  1     0.0000000000e+00
 2  2  2    -7.4661258497e-01
 2  2  3     0.0000000000e+00
 2  3  1     0.0000000000e+00
 2  3  2     0.0000000000e+00
 2  3  3     5.1693855926e-02
 3  1  1     0.0000000000e+00
 3  1  2     0.0000000000e+00
 3  1  3     0.0000000000e+00
 3  2  1     0.0000000000e+00
 3  2  2     0.0000000000e+00
 3  2  3     5.1693855926e-02
 3  3  1     0.0000000000e+00
 3  3  2    -1.1222114817e-01
 3  3  3     0.0000000000e+00

   15
0.0000000000e+00 0.0000000000e+00 0.0000000000e+00
-2.4728947333e+00 -4.2831793198e+00 0.0000000000e+00
     1      1      2
 1  1  1    -6.5913159175e-01
 1  1  2    -1.7005830332e-01
 1  1  3     0.0000000000e+00
 1  2  1    -9.9296690470e-01
 1  2  2     1.1360035630e-02
 1  2  3     0.0000000000e+00
 1  3  1     0.0000000000e+00
 1  3  2     0.0000000000e+00
 1  3  3     1.6508609528e-01
 2  1  1    -9.9296690470e-01
 2  1  2     1.1360035630e-02
 2  1  3     0.0000000000e+00
 2  2  1     5.1305429714e-02
 2  2  2     7.9685011603e-01
 2  2  3     0.0000000000e+00
 2  3  1     0.0000000000e+00
 2  3  2     0.0000000000e+00
 2  3  3    -8.8013556512e-02
 3  1  1     0.0000000000e+00
 3  1  2     0.0000000000e+00
 3  1  3     1.6508609528e-01
 3  2  1     0.0000000000e+00
 3  2  2     0.0000000000e+00
 3  2  3    -8.8013556512e-02
 3  3  1     6.1899824687e-02
 3  3  2     1.9889586320e-01
 3  3  3     0.0000000000e+00

   16
0.0000000000e+00 0.0000000000e+00 0.0000000000e+00
0.0000000000e+00 -4.2831793198e+00 0.0000000000e+00
     1      1      1
 1  1  1     0.0000000000e+00
 1  1  2     6.7661729252e-01
 1  1  3     0.0000000000e+00
 1  2  1     2.1959526722e-01
 1  2  2     0.0000000000e+00
 1  2  3     0.0000000000e+00
 1  3  1     0.0000000000e+00
 1  3  2     0.0000000000e+00
 1  3  3     0.0000000000e+00
 2  1  1     2.1959526722e-01
 2  1  2     0.0000000000e+00
 2  1  3     0.0000000000e+00
 2  2  1     0.0000000000e+00
 2  2  2    -6.5249125934e-01
 2  2  3     0.0000000000e+00
 2  3  1     0.0000000000e+00
 2  3  2     0.0000000000e+00
 2  3  3     9.9594943078e-02
 3  1  1     0.0000000000e+00
 3  1  2     0.0000000000e+00
 3  1  3     0.0000000000e+00
 3  2  1     0.0000000000e+00
 3  2  2     0.0000000000e+00
 3  2  3     9.9594943078e-02
 3  3  1     0.0000000000e+00
 3  3  2     3.3589663388e-02
 3  3  3     0.0000000000e+00

   17
0.0000000000e+00 0.0000000000e+00 0.0000000000e+00
2.7755575616e-16 -4.2831793198e+00 0.0000000000e+00
     1      1      2
 1  1  1     0.0000000000e+00
 1  1  2    -1.7757543791e+00
 1  1  3     0.0000000000e+00
 1  2  1     2.4780323502e+00
 1  2  2     0.0000000000e+00
 1  2  3     0.0000000000e+00
 1  3  1     0.0000000000e+00
 1  3  2     0.0000000000e+00
 1  3  3     0.0000000000e+00
 2  1  1     2.4780323502e+00
 2  1  2     0.0000000000e+00
 2  1  3     0.0000000000e+00
 2  2  1     0.0000000000e+00
 2  2  2     2.4203738601e+00
 2  2  3     0.0000000000e+00
 2  3  1     0.0000000000e+00
 2  3  2     0.0000000000e+00
 2  3  3    -8.3122178027e-02
 3  1  1     0.0000000000e+00
 3  1  2     0.0000000000e+00
 3  1  3     0.0000000000e+00
 3  2  1     0.0000000000e+00
 3  2  2     0.0000000000e+00
 3  2  3    -8.3122178027e-02
 3  3  1     0.0000000000e+00
 3  3  2     7.2639278968e-02
 3  3  3     0.0000000000e+00

   18
0.0000000000e+00 0.0000000000e+00 0.0000000000e+00
1.2364473666e+00 -2.1415896599e+00 0.0000000000e+00
     1      1      1
 1  1  1     1.3904213619e-01
 1  1  2     2.9926277354e+00
 1  1  3     0.0000000000e+00
 1  2  1     1.1699149602e+00
 1  2  2    -6.4513403346e+00
 1  2  3     0.0000000000e+00
 1  3  1     0.0000000000e+00
 1  3  2     0.0000000000e+00
 1  3  3     3.6845985696e-01
 2  1  1     1.1699149602e+00
 2  1  2    -6.4513403346e+00
 2  1  3     0.0000000000e+00
 2  2  1    -4.6054137642e+00
 2  2  2     4.0817382170e+00
 2  2  3     0.0000000000e+00
 2  3  1     0.0000000000e+00
 2  3  2     0.0000000000e+00
 2  3  3    -2.5101913365e+00
 3  1  1     0.0000000000e+00
 3  1  2     0.0000000000e+00
 3  1  3     3.6845985696e-01
 3  2  1     0.0000000000e+00
 3  2  2     0.0000000000e+00
 3  2  3    -2.5101913365e+00
 3  3  1    -7.1290504779e-01
 3  3  2     1.5539315517e-01
 3  3  3     0.0000000000e+00

   19
0.0000000000e+00 0.0000000000e+00 0.0000000000e+00
1.2364473666e+00 -2.1415896599e+00 0.0000000000e+00
     1      1      2
 1  1  1    -1.1259768725e+02
 1  1  2     7.5195710000e+01
 1  1  3     0.0000000000e+00
 1  2  1     7.4437539163e+01
 1  2  2    -3.7094832279e+01
 1  2  3     0.0000000000e+00
 1  3  1     0.0000000000e+00
 1  3  2     0.0000000000e+00
 1  3  3     1.1881973690e+01
 2  1  1     7.4437539163e+01
 2  1  2    -3.7094832279e+01
 2  1  3     0.0000000000e+00
 2  2  1    -3.8408022690e+01
 2  2  2     1.1987477283e+01
 2  2  3     0.0000000000e+00
 2  3  1     0.0000000000e+00
 2  3  2     0.0000000000e+00
 2  3  3    -6.8600607084e+00
 3  1  1     0.0000000000e+00
 3  1  2     0.0000000000e+00
 3  1  3     1.1881973690e+01
 3  2  1     0.0000000000e+00
 3  2  2     0.0000000000e+00
 3  2  3    -6.8600607084e+00
 3  3  1     1.0037900972e+01
 3  3  2    -5.7953848283e+00
 3  3  3     0.0000000000e+00

   20
0.0000000000e+00 0.0000000000e+00 0.0000000000e+00
3.7093420999e+00 -2.1415896599e+00 0.0000000000e+00
     1      1      1
 1  1  1    -4.0527011724e-01
 1  1  2     1.9254004944e-01
 1  1  3     0.0000000000e+00
 1  2  1     4.3869182453e-01
 1  2  2    -2.7720583269e-01
 1  2  3     0.0000000000e+00
 1  3  1     0.0000000000e+00
 1  3  2     0.0000000000e+00
 1  3  3     4.4768192452e-02
 2  1  1     4.3869182453e-01
 2  1  2    -2.7720583269e-01
 2  1  3     0.0000000000e+00
 2  2  1     1.4914154814e-01
 2  2  2    -4.4664151128e-02
 2  2  3     0.0000000000e+00
 2  3  1     0.0000000000e+00
 2  3  2     0.0000000000e+00
 2  3  3    -2.5846927963e-02
 3  1  1     0.0000000000e+00
 3  1  2     0.0000000000e+00
 3  1  3     4.4768192452e-02
 3  2  1     0.0000000000e+00
 3  2  2     0.0000000000e+00
 3  2  3    -2.5846927963e-02
 3  3  1    -9.7186365155e-02
 3  3  2     5.6110574084e-02
 3  3  3     0.0000000000e+00

   21
0.0000000000e+00 0.0000000000e+00 0.0000000000e+00
3.7093420999e+00 -2.1415896599e+00 0.0000000000e+00
     1      1      2
 1  1  1     3.8485384781e-03
 1  1  2    -1.1365880455e+00
 1  1  3     0.0000000000e+00
 1  2  1    -7.5972747080e-01
 1  2  2     4.8987936068e-01
 1  2  3     0.0000000000e+00
 1  3  1     0.0000000000e+00
 1  3  2     0.0000000000e+00
 1  3  3    -6.3210718209e-03
 2  1  1    -7.5972747080e-01
 2  1  2     4.8987936068e-01
 2  1  3     0.0000000000e+00
 2  2  1    -2.4275309015e-01
 2  2  2     2.9679924169e-01
 2  2  3     0.0000000000e+00
 2  3  1     0.0000000000e+00
 2  3  2     0.0000000000e+00
 2  3  3     1.8697553058e-01
 3  1  1     0.0000000000e+00
 3  1  2     0.0000000000e+00
 3  1  3    -6.3210718209e-03
 3  2  1     0.0000000000e+00
 3  2  2     0.0000000000e+00
 3  2  3     1.8697553058e-01
 3  3  1    -2.0319878258e-01
 3  3  2    -4.5841110930e-02
 3  3  3     0.0000000000e+00

   22
0.0000000000e+00 0.0000000000e+00 0.0000000000e+00
-3.7093420999e+00 -2.1415896599e+00 0.0000000000e+00
     1      1      1
 1  1  1     4.0527011724e-01
 1  1  2     1.9254004944e-01
 1  1  3     0.0000000000e+00
 1  2  1     4.3869182453e-01
 1  2  2     2.7720583269e-01
 1  2  3     0.0000000000e+00
 1  3  1     0.0000000000e+00
 1  3  2     0.0000000000e+00
 1  3  3    -4.4768192452e-02
 2  1  1     4.3869182453e-01
 2  1  2     2.7720583269e-01
 2  1  3     0.0000000000e+00
 2  2  1    -1.4914154814e-01
 2  2  2    -4.4664151128e-02
 2  2  3     0.0000000000e+00
 2  3  1     0.0000000000e+00
 2  3  2     0.0000000000e+00
 2  3  3    -2.5846927963e-02
 3  1  1     0.0000000000e+00
 3  1  2     0.0000000000e+00
 3  1  3    -4.4768192452e-02
 3  2  1     0.0000000000e+00
 3  2  2     0.0000000000e+00
 3  2  3    -2.5846927963e-02
 3  3  1     9.7186365155e-02
 3  3  2     5.6110574084e-02
 3  3  3     0.0000000000e+00

   23
0.0000000000e+00 0.0000000000e+00 0.0000000000e+00
-3.7093420999e+00 -2.1415896599e+00 0.0000000000e+00
     1      1      2
 1  1  1    -3.8485384781e-03
 1  1  2    -1.1365880455e+00
 1  1  3     0.0000000000e+00
 1  2  1    -7.5972747080e-01
 1  2  2    -4.8987936068e-01
 1  2  3     0.0000000000e+00
 1  3  1     0.0000000000e+00
 1  3  2     0.0000000000e+00
 1  3  3     6.3210718209e-03
 2  1  1    -7.5972747080e-01
 2  1  2    -4.8987936068e-01
 2  1  3     0.0000000000e+00
 2  2  1     2.4275309015e-01
 2  2  2     2.9679924169e-01
 2  2  3     0.0000000000e+00
 2  3  1     0.0000000000e+00
 2  3  2     0.0000000000e+00
 2  3  3     1.8697553058e-01
 3  1  1     0.0000000000e+00
 3  1  2     0.0000000000e+00
 3  1  3     6.3210718209e-03
 3  2  1     0.0000000000e+00
 3  2  2     0.0000000000e+00
 3  2  3     1.8697553058e-01
 3  3  1     2.0319878258e-01
 3  3  2    -4.5841110930e-02
 3  3  3     0.0000000000e+00

   24
0.0000000000e+00 0.0000000000e+00 0.0000000000e+00
-1.2364473666e+00 -2.1415896599e+00 0.0000000000e+00
     1      1      1
 1  1  1    -1.3904213619e-01
 1  1  2     2.9926277354e+00
 1  1  3     0.0000000000e+00
 1  2  1     1.1699149602e+00
 1  2  2     6.4513403346e+00
 1  2  3     0.0000000000e+00
 1  3  1     0.0000000000e+00
 1  3  2     0.0000000000e+00
 1  3  3    -3.6845985696e-01
 2  1  1     1.1699149602e+00
 2  1  2     6.4513403346e+00
 2  1  3     0.0000000000e+00
 2  2  1     4.6054137642e+00
 2  2  2     4.0817382170e+00
 2  2  3     0.0000000000e+00
 2  3  1     0.0000000000e+00
 2  3  2     0.0000000000e+00
 2  3  3    -2.5101913365e+00
 3  1  1     0.0000000000e+00
 3  1  2     0.0000000000e+00
 3  1  3    -3.6845985696e-01
 3  2  1     0.0000000000e+00
 3  2  2     0.0000000000e+00
 3  2  3    -2.5101913365e+00
 3  3  1     7.1290504779e-01
 3  3  2     1.5539315517e-01
 3  3  3     0.0000000000e+00

   25
0.0000000000e+00 0.0000000000e+00 0.0000000000e+00
-1.2364473666e+00 -2.1415896599e+00 0.0000000000e+00
     1      1      2
 1  1  1     1.1259768725e+02
 1  1  2     7.5195710000e+01
 1  1  3     0.0000000000e+00
 1  2  1     7.4437539163e+01
 1  2  2     3.7094832279e+01
 1  2  3     0.0000000000e+00
 1  3  1     0.0000000000e+00
 1  3  2     0.0000000000e+00
 1  3  3    -1.1881973690e+01
 2  1  1     7.4437539163e+01
 2  1  2     3.7094832279e+01
 2  1  3     0.0000000000e+00
 2  2  1     3.8408022690e+01
 2  2  2     1.1987477283e+01
 2  2  3     0.0000000000e+00
 2  3  1     0.0000000000e+00
 2  3  2     0.0000000000e+00
 2  3  3    -6.8600607084e+00
 3  1  1     0.0000000000e+00
 3  1  2     0.0000000000e+00
 3  1  3    -1.1881973690e+01
 3  2  1     0.0000000000e+00
 3  2  2     0.0000000000e+00
 3  2  3    -6.8600607084e+00
 3  3  1    -1.0037900972e+01
 3  3  2    -5.7953848283e+00
 3  3  3     0.0000000000e+00

   26
0.0000000000e+00 0.0000000000e+00 0.0000000000e+00
0.0000000000e+00 0.0000000000e+00 0.0000000000e+00
     1      2      1
 1  1  1     0.0000000000e+00
 1  1  2     1.0187404957e+01
 1  1  3     0.0000000000e+00
 1  2  1     8.6710632823e+00
 1  2  2     0.0000000000e+00
 1  2  3     0.0000000000e+00
 1  3  1     0.0000000000e+00
 1  3  2     0.0000000000e+00
 1  3  3     0.0000000000e+00
 2  1  1     1.0187404957e+01
 2  1  2     0.0000000000e+00
 2  1  3     0.0000000000e+00
 2  2  1     0.0000000000e+00
 2  2  2    -1.8303743785e+02
 2  2  3     0.0000000000e+00
 2  3  1     0.0000000000e+00
 2  3  2     0.0000000000e+00
 2  3  3     1.3720121417e+01
 3  1  1     0.0000000000e+00
 3  1  2     0.0000000000e+00
 3  1  3     0.0000000000e+00
 3  2  1     0.0000000000e+00
 3  2  2     0.0000000000e+00
 3  2  3     1.1590769657e+01
 3  3  1     0.0000000000e+00
 3  3  2     1.3720121417e+01
 3  3  3     0.0000000000e+00

   27
0.0000000000e+00 0.0000000000e+00 0.0000000000e+00
0.0000000000e+00 0.0000000000e+00 0.0000000000e+00
     1      2      2
 1  1  1     0.0000000000e+00
 1  1  2    -1.0187404957e+01
 1  1  3     0.0000000000e+00
 1  2  1    -1.0187404957e+01
 1  2  2     0.0000000000e+00
 1  2  3     0.0000000000e+00
 1  3  1     0.0000000000e+00
 1  3  2     0.0000000000e+00
 1  3  3     0.0000000000e+00
 2  1  1    -8.6710632823e+00
 2  1  2     0.0000000000e+00
 2  1  3     0.0000000000e+00
 2  2  1     0.0000000000e+00
 2  2  2     1.8303743785e+02
 2  2  3     0.0000000000e+00
 2  3  1     0.0000000000e+00
 2  3  2     0.0000000000e+00
 2  3  3    -1.1590769657e+01
 3  1  1     0.0000000000e+00
 3  1  2     0.0000000000e+00
 3  1  3     0.0000000000e+00
 3  2  1     0.0000000000e+00
 3  2  2     0.0000000000e+00
 3  2  3    -1.3720121417e+01
 3  3  1     0.0000000000e+00
 3  3  2    -1.3720121417e+01
 3  3  3     0.0000000000e+00

   28
0.0000000000e+00 0.0000000000e+00 0.0000000000e+00
2.4728947333e+00 0.0000000000e+00 0.0000000000e+00
     1      2      1
 1  1  1     1.2187029460e+00
 1  1  2     4.0635381736e-01
 1  1  3     0.0000000000e+00
 1  2  1    -1.5480693655e+00
 1  2  2    -1.4148943577e+00
 1  2  3     0.0000000000e+00
 1  3  1     0.0000000000e+00
 1  3  2     0.0000000000e+00
 1  3  3    -7.4343212738e-01
 2  1  1     4.3835353701e-01
 2  1  2     3.9346120320e-01
 2  1  3     0.0000000000e+00
 2  2  1    -1.5282240225e+00
 2  2  2    -1.2218761061e+00
 2  2  3     0.0000000000e+00
 2  3  1     0.0000000000e+00
 2  3  2     0.0000000000e+00
 2  3  3    -2.5706807427e-03
 3  1  1     0.0000000000e+00
 3  1  2     0.0000000000e+00
 3  1  3     1.2332978520e-01
 3  2  1     0.0000000000e+00
 3  2  2     0.0000000000e+00
 3  2  3    -3.9893464930e-01
 3  3  1     5.9900460302e-01
 3  3  2     7.2675573704e-01
 3  3  3     0.0000000000e+00

   29
0.0000000000e+00 0.0000000000e+00 0.0000000000e+00
2.4728947333e+00 0.0000000000e+00 0.0000000000e+00
     1      2      2
 1  1  1     1.2187029460e+00
 1  1  2    -4.0635381736e-01
 1  1  3     0.0000000000e+00
 1  2  1    -4.3835353701e-01
 1  2  2     3.9346120320e-01
 1  2  3     0.0000000000e+00
 1  3  1     0.0000000000e+00
 1  3  2     0.0000000000e+00
 1  3  3     1.2332978520e-01
 2  1  1     1.5480693655e+00
 2  1  2    -1.4148943577e+00
 2  1  3     0.0000000000e+00
 2  2  1    -1.5282240225e+00
 2  2  2     1.2218761061e+00
 2  2  3     0.0000000000e+00
 2  3  1     0.0000000000e+00
 2  3  2     0.0000000000e+00
 2  3  3     3.9893464930e-01
 3  1  1     0.0000000000e+00
 3  1  2     0.0000000000e+00
 3  1  3    -7.4343212738e-01
 3  2  1     0.0000000000e+00
 3  2  2     0.0000000000e+00
 3  2  3     2.5706807427e-03
 3  3  1     5.9900460302e-01
 3  3  2    -7.2675573704e-01
 3  3  3     0.0000000000e+00

   30
0.0000000000e+00 0.0000000000e+00 0.0000000000e+00
-2.4728947333e+00 0.0000000000e+00 0.0000000000e+00
     1      2      1
 1  1  1    -1.2187029460e+00
 1  1  2     4.0635381736e-01
 1  1  3     0.0000000000e+00
 1  2  1    -1.5480693655e+00
 1  2  2     1.4148943577e+00
 1  2  3     0.0000000000e+00
 1  3  1     0.0000000000e+00
 1  3  2     0.0000000000e+00
 1  3  3     7.4343212738e-01
 2  1  1     4.3835353701e-01
 2  1  2    -3.9346120320e-01
 2  1  3     0.0000000000e+00
 2  2  1     1.5282240225e+00
 2  2  2    -1.2218761061e+00
 2  2  3     0.0000000000e+00
 2  3  1     0.0000000000e+00
 2  3  2     0.0000000000e+00
 2  3  3    -2.5706807427e-03
 3  1  1     0.0000000000e+00
 3  1  2     0.0000000000e+00
 3  1  3    -1.2332978520e-01
 3  2  1     0.0000000000e+00
 3  2  2     0.0000000000e+00
 3  2  3    -3.9893464930e-01
 3  3  1    -5.9900460302e-01
 3  3  2     7.2675573704e-01
 3  3  3     0.0000000000e+00

   31
0.0000000000e+00 0.0000000000e+00 0.0000000000e+00
-2.4728947333e+00 0.0000000000e+00 0.0000000000e+00
     1      2      2
 1  1  1    -1.2187029460e+00
 1  1  2    -4.0635381736e-01
 1  1  3     0.0000000000e+00
 1  2  1    -4.3835353701e-01
 1  2  2    -3.9346120320e-01
 1  2  3     0.0000000000e+00
 1  3  1     0.0000000000e+00
 1  3  2     0.0000000000e+00
 1  3  3    -1.2332978520e-01
 2  1  1     1.5480693655e+00
 2  1  2     1.4148943577e+00
 2  1  3     0.0000000000e+00
 2  2  1     1.5282240225e+00
 2  2  2     1.2218761061e+00
 2  2  3     0.0000000000e+00
 2  3  1     0.0000000000e+00
 2  3  2     0.0000000000e+00
 2  3  3     3.9893464930e-01
 3  1  1     0.0000000000e+00
 3  1  2     0.0000000000e+00
 3  1  3     7.4343212738e-01
 3  2  1     0.0000000000e+00
 3  2  2     0.0000000000e+00
 3  2  3     2.5706807427e-03
 3  3  1    -5.9900460302e-01
 3  3  2    -7.2675573704e-01
 3  3  3     0.0000000000e+00

   32
0.0000000000e+00 0.0000000000e+00 0.0000000000e+00
-1.2364473666e+00 2.1415896599e+00 0.0000000000e+00
     1      2      1
 1  1  1     7.1815104798e-02
 1  1  2     9.6027108002e-01
 1  1  3     0.0000000000e+00
 1  2  1    -4.7927054263e-02
 1  2  2     6.0602183249e-01
 1  2  3     0.0000000000e+00
 1  3  1     0.0000000000e+00
 1  3  2     0.0000000000e+00
 1  3  3     1.8439681364e+00
 2  1  1    -3.2224845199e+00
 2  1  2     1.2746865114e+00
 2  1  3     0.0000000000e+00
 2  2  1    -1.8088932391e+00
 2  2  2     8.2533012483e-01
 2  2  3     0.0000000000e+00
 2  3  1     0.0000000000e+00
 2  3  2     0.0000000000e+00
 2  3  3    -7.9200360490e-01
 3  1  1     0.0000000000e+00
 3  1  2     0.0000000000e+00
 3  1  3     1.0023691797e-02
 3  2  1     0.0000000000e+00
 3  2  2     0.0000000000e+00