  734

    1
0.0000000000e+00 0.0000000000e+00 0.0000000000e+00
0.0000000000e+00 0.0000000000e+00 0.0000000000e+00
     1      1      1
 1  1  1     0.0000000000e+00
 1  1  2    -1.3960286547e+02
 1  1  3     0.0000000000e+00
 1  2  1    -1.3960286547e+02
 1  2  2     0.0000000000e+00
 1  2  3     0.0000000000e+00
 1  3  1     0.0000000000e+00
 1  3  2     0.0000000000e+00
 1  3  3     0.0000000000e+00
 2  1  1    -1.3960286547e+02
 2  1  2     0.0000000000e+00
 2  1  3     0.0000000000e+00
 2  2  1     0.0000000000e+00
 2  2  2     1.3960286547e+02
 2  2  3     0.0000000000e+00
 2  3  1     0.0000000000e+00
 2  3  2     0.0000000000e+00
 2  3  3     0.0000000000e+00
 3  1  1     0.0000000000e+00
 3  1  2     0.0000000000e+00
 3  1  3     0.0000000000e+00
 3  2  1     0.0000000000e+00
 3  2  2     0.0000000000e+00
 3  2  3     0.0000000000e+00
 3  3  1     0.0000000000e+00
 3  3  2     0.0000000000e+00
 3  3  3     0.0000000000e+00

    2
0.0000000000e+00 0.0000000000e+00 0.0000000000e+00
0.0000000000e+00 0.0000000000e+00 0.0000000000e+00
     1      1      2
 1  1  1     0.0000000000e+00
 1  1  2     9.1126902597e+00
 1  1  3     0.0000000000e+00
 1  2  1     8.6155880087e+00
 1  2  2     0.0000000000e+00
 1  2  3     0.0000000000e+00
 1  3  1     0.0000000000e+00
 1  3  2     0.0000000000e+00
 1  3  3     0.0000000000e+00
 2  1  1     8.6155880087e+00
 2  1  2     0.0000000000e+00
 2  1  3     0.0000000000e+00
 2  2  1     0.0000000000e+00
 2  2  2    -1.5950880154e+02
 2  2  3     0.0000000000e+00
 2  3  1     0.0000000000e+00
 2  3  2     0.0000000000e+00
 2  3  3     1.1029490224e+01
 3  1  1     0.0000000000e+00
 3  1  2     0.0000000000e+00
 3  1  3     0.0000000000e+00
 3  2  1     0.0000000000e+00
 3  2  2     0.0000000000e+00
 3  2  3     1.1029490224e+01
 3  3  1     0.0000000000e+00
 3  3  2     1.0972433310e+01
 3  3  3     0.0000000000e+00

    3
0.0000000000e+00 0.0000000000e+00 0.0000000000e+00
2.5125826988e+00 0.0000000000e+00 0.0000000000e+00
     1      1      1
 1  1  1    -5.8987536581e+00
 1  1  2     3.6923323479e-01
 1  1  3     0.0000000000e+00
 1  2  1     1.3962793673e+00
 1  2  2     1.6227792322e+00
 1  2  3     0.0000000000e+00
 1  3  1     0.0000000000e+00
 1  3  2     0.0000000000e+00
 1  3  3     1.6295041835e+00
 2  1  1     1.3962793673e+00
 2  1  2     1.6227792322e+00
 2  1  3     0.0000000000e+00
 2  2  1     1.4079641841e+00
 2  2  2     1.5307635524e+00
 2  2  3     0.0000000000e+00
 2  3  1     0.0000000000e+00
 2  3  2     0.0000000000e+00
 2  3  3     5.8431441904e-01
 3  1  1     0.0000000000e+00
 3  1  2     0.0000000000e+00
 3  1  3     1.6295041835e+00
 3  2  1     0.0000000000e+00
 3  2  2     0.0000000000e+00
 3  2  3     5.8431441904e-01
 3  3  1    -7.7297024147e-02
 3  3  2     2.7201724399e-01
 3  3  3     0.0000000000e+00

    4
0.0000000000e+00 0.0000000000e+00 0.0000000000e+00
2.5125826988e+00 0.0000000000e+00 0.0000000000e+00
     1      1      2
 1  1  1    -1.0351567079e+00
 1  1  2     3.3360728946e-01
 1  1  3     0.0000000000e+00
 1  2  1    -9.2869521236e-01
 1  2  2    -1.0738429252e+00
 1  2  3     0.0000000000e+00
 1  3  1     0.0000000000e+00
 1  3  2     0.0000000000e+00
 1  3  3    -1.7117488113e-01
 2  1  1    -9.2869521236e-01
 2  1  2    -1.0738429252e+00
 2  1  3     0.0000000000e+00
 2  2  1     1.1125291425e+00
 2  2  2    -2.8893629352e-01
 2  2  3     0.0000000000e+00
 2  3  1     0.0000000000e+00
 2  3  2     0.0000000000e+00
 2  3  3    -9.8827863701e-02
 3  1  1     0.0000000000e+00
 3  1  2     0.0000000000e+00
 3  1  3    -1.7117488113e-01
 3  2  1     0.0000000000e+00
 3  2  2     0.0000000000e+00
 3  2  3    -9.8827863701e-02
 3  3  1    -3.5210294675e-01
 3  3  2    -2.0328673109e-01
 3  3  3     0.0000000000e+00

    5
0.0000000000e+00 0.0000000000e+00 0.0000000000e+00
-2.5125826988e+00 0.0000000000e+00 0.0000000000e+00
     1      1      1
 1  1  1     5.8987536581e+00
 1  1  2     3.6923323479e-01
 1  1  3     0.0000000000e+00
 1  2  1     1.3962793673e+00
 1  2  2    -1.6227792322e+00
 1  2  3     0.0000000000e+00
 1  3  1     0.0000000000e+00
 1  3  2     0.0000000000e+00
 1  3  3    -1.6295041835e+00
 2  1  1     1.3962793673e+00
 2  1  2    -1.6227792322e+00
 2  1  3     0.0000000000e+00
 2  2  1    -1.4079641841e+00
 2  2  2     1.5307635524e+00
 2  2  3     0.0000000000e+00
 2  3  1     0.0000000000e+00
 2  3  2     0.0000000000e+00
 2  3  3     5.8431441904e-01
 3  1  1     0.0000000000e+00
 3  1  2     0.0000000000e+00
 3  1  3    -1.6295041835e+00
 3  2  1     0.0000000000e+00
 3  2  2     0.0000000000e+00
 3  2  3     5.8431441904e-01
 3  3  1     7.7297024147e-02
 3  3  2     2.7201724399e-01
 3  3  3     0.0000000000e+00

    6
0.0000000000e+00 0.0000000000e+00 0.0000000000e+00
-2.5125826988e+00 0.0000000000e+00 0.0000000000e+00
     1      1      2
 1  1  1     1.0351567079e+00
 1  1  2     3.3360728946e-01
 1  1  3     0.0000000000e+00
 1  2  1    -9.2869521236e-01
 1  2  2     1.0738429252e+00
 1  2  3     0.0000000000e+00
 1  3  1     0.0000000000e+00
 1  3  2     0.0000000000e+00
 1  3  3     1.7117488113e-01
 2  1  1    -9.2869521236e-01
 2  1  2     1.0738429252e+00
 2  1  3     0.0000000000e+00
 2  2  1    -1.1125291425e+00
 2  2  2    -2.8893629352e-01
 2  2  3     0.0000000000e+00
 2  3  1     0.0000000000e+00
 2  3  2     0.0000000000e+00
 2  3  3    -9.8827863701e-02
 3  1  1     0.0000000000e+00
 3  1  2     0.0000000000e+00
 3  1  3     1.7117488113e-01
 3  2  1     0.0000000000e+00
 3  2  2     0.0000000000e+00
 3  2  3    -9.8827863701e-02
 3  3  1     3.5210294675e-01
 3  3  2    -2.0328673109e-01
 3  3  3     0.0000000000e+00

    7
0.0000000000e+00 0.0000000000e+00 0.0000000000e+00
-1.2562913494e+00 2.1759604463e+00 0.0000000000e+00
     1      1      1
 1  1  1    -2.6865349204e+00
 1  1  2    -6.3828304733e-01
 1  1  3     0.0000000000e+00
 1  2  1    -9.6577082476e-01
 1  2  2     2.2896286069e+00
 1  2  3     0.0000000000e+00
 1  3  1     0.0000000000e+00
 1  3  2     0.0000000000e+00
 1  3  3    -1.3207832225e+00
 2  1  1    -9.6577082476e-01
 2  1  2     2.2896286069e+00
 2  1  3     0.0000000000e+00
 2  2  1     3.2864841725e+00
 2  2  2    -4.2008531138e+00
 2  2  3     0.0000000000e+00
 2  3  1     0.0000000000e+00
 2  3  2     0.0000000000e+00
 2  3  3     1.1190348090e+00
 3  1  1     0.0000000000e+00
 3  1  2     0.0000000000e+00
 3  1  3    -1.3207832225e+00
 3  2  1     0.0000000000e+00
 3  2  2     0.0000000000e+00
 3  2  3     1.1190348090e+00
 3  3  1    -1.9692533149e-01
 3  3  2    -2.0294980854e-01
 3  3  3     0.0000000000e+00

    8
0.0000000000e+00 0.0000000000e+00 0.0000000000e+00
-1.2562913494e+00 2.1759604463e+00 0.0000000000e+00
     1      1      2
 1  1  1     6.3461105721e-01
 1  1  2    -8.4090057785e-01
 1  1  3     0.0000000000e+00
 1  2  1    -1.9967049166e-01
 1  2  2     1.0282275941e-01
 1  2  3     0.0000000000e+00
 1  3  1     0.0000000000e+00
 1  3  2     0.0000000000e+00
 1  3  3     6.4761985114e-02
 2  1  1    -1.9967049166e-01
 2  1  2     1.0282275941e-01
 2  1  3     0.0000000000e+00
 2  2  1     2.8777167784e-01
 2  2  2     7.2715654151e-01
 2  2  3     0.0000000000e+00
 2  3  1     0.0000000000e+00
 2  3  2     0.0000000000e+00
 2  3  3    -2.1344156141e-01
 3  1  1     0.0000000000e+00
 3  1  2     0.0000000000e+00
 3  1  3     6.4761985114e-02
 3  2  1     0.0000000000e+00
 3  2  2     0.0000000000e+00
 3  2  3    -2.1344156141e-01
 3  3  1     3.6892371992e-01
 3  3  2    -3.5972429455e-01
 3  3  3     0.0000000000e+00

    9
0.0000000000e+00 0.0000000000e+00 0.0000000000e+00
1.2562913494e+00 2.1759604463e+00 0.0000000000e+00
     1      1      1
 1  1  1     2.6865349204e+00
 1  1  2    -6.3828304733e-01
 1  1  3     0.0000000000e+00
 1  2  1    -9.6577082476e-01
 1  2  2    -2.2896286069e+00
 1  2  3     0.0000000000e+00
 1  3  1     0.0000000000e+00
 1  3  2     0.0000000000e+00
 1  3  3     1.3207832225e+00
 2  1  1    -9.6577082476e-01
 2  1  2    -2.2896286069e+00
 2  1  3     0.0000000000e+00
 2  2  1    -3.2864841725e+00
 2  2  2    -4.2008531138e+00
 2  2  3     0.0000000000e+00
 2  3  1     0.0000000000e+00
 2  3  2     0.0000000000e+00
 2  3  3     1.1190348090e+00
 3  1  1     0.0000000000e+00
 3  1  2     0.0000000000e+00
 3  1  3     1.3207832225e+00
 3  2  1     0.0000000000e+00
 3  2  2     0.0000000000e+00
 3  2  3     1.1190348090e+00
 3  3  1     1.9692533149e-01
 3  3  2    -2.0294980854e-01
 3  3  3     0.0000000000e+00

   10
0.0000000000e+00 0.0000000000e+00 0.0000000000e+00
1.2562913494e+00 2.1759604463e+00 0.0000000000e+00
     1      1      2
 1  1  1    -6.3461105721e-01
 1  1  2    -8.4090057785e-01
 1  1  3     0.0000000000e+00
 1  2  1    -1.9967049166e-01
 1  2  2    -1.0282275941e-01
 1  2  3     0.0000000000e+00
 1  3  1     0.0000000000e+00
 1  3  2     0.0000000000e+00
 1  3  3    -6.4761985114e-02
 2  1  1    -1.9967049166e-01
 2  1  2    -1.0282275941e-01
 2  1  3     0.0000000000e+00
 2  2  1    -2.8777167784e-01
 2  2  2     7.2715654151e-01
 2  2  3     0.0000000000e+00
 2  3  1     0.0000000000e+00
 2  3  2     0.0000000000e+00
 2  3  3    -2.1344156141e-01
 3  1  1     0.0000000000e+00
 3  1  2     0.0000000000e+00
 3  1  3    -6.4761985114e-02
 3  2  1     0.0000000000e+00
 3  2  2     0.0000000000e+00
 3  2  3    -2.1344156141e-01
 3  3  1    -3.6892371992e-01
 3  3  2    -3.5972429455e-01
 3  3  3     0.0000000000e+00

   11
0.0000000000e+00 0.0000000000e+00 0.0000000000e+00
3.7688740482e+00 2.1759604463e+00 0.0000000000e+00
     1      1      1
 1  1  1    -1.3598393049e-01
 1  1  2     3.7366294605e-02
 1  1  3     0.0000000000e+00
 1  2  1     2.8412400475e-01
 1  2  2     9.7137653549e-02
 1  2  3     0.0000000000e+00
 1  3  1     0.0000000000e+00
 1  3  2     0.0000000000e+00
 1  3  3    -2.3652269187e-02
 2  1  1     2.8412400475e-01
 2  1  2     9.7137653549e-02
 2  1  3     0.0000000000e+00
 2  2  1    -3.3025923759e-01
 2  2  2    -3.0655191320e-01
 2  2  3     0.0000000000e+00
 2  3  1     0.0000000000e+00
 2  3  2     0.0000000000e+00
 2  3  3    -1.3655643982e-02
 3  1  1     0.0000000000e+00
 3  1  2     0.0000000000e+00
 3  1  3    -2.3652269187e-02
 3  2  1     0.0000000000e+00
 3  2  2     0.0000000000e+00
 3  2  3    -1.3655643982e-02
 3  3  1     7.1405427316e-02
 3  3  2     4.1225942682e-02
 3  3  3     0.0000000000e+00

   12
0.0000000000e+00 0.0000000000e+00 0.0000000000e+00
-3.7688740482e+00 2.1759604463e+00 0.0000000000e+00
     1      1      1
 1  1  1     1.3598393049e-01
 1  1  2     3.7366294605e-02
 1  1  3     0.0000000000e+00
 1  2  1     2.8412400475e-01
 1  2  2    -9.7137653549e-02
 1  2  3     0.0000000000e+00
 1  3  1     0.0000000000e+00
 1  3  2     0.0000000000e+00
 1  3  3     2.3652269187e-02
 2  1  1     2.8412400475e-01
 2  1  2    -9.7137653549e-02
 2  1  3     0.0000000000e+00
 2  2  1     3.3025923759e-01
 2  2  2    -3.0655191320e-01
 2  2  3     0.0000000000e+00
 2  3  1     0.0000000000e+00
 2  3  2     0.0000000000e+00
 2  3  3    -1.3655643982e-02
 3  1  1     0.0000000000e+00
 3  1  2     0.0000000000e+00
 3  1  3     2.3652269187e-02
 3  2  1     0.0000000000e+00
 3  2  2     0.0000000000e+00
 3  2  3    -1.3655643982e-02
 3  3  1    -7.1405427316e-02
 3  3  2     4.1225942682e-02
 3  3  3     0.0000000000e+00

   13
0.0000000000e+00 0.0000000000e+00 0.0000000000e+00
2.5125826988e+00 -4.3519208925e+00 0.0000000000e+00
     1      1      2
 1  1  1     4.6813968431e-01
 1  1  2    -3.7537048560e-02
 1  1  3     0.0000000000e+00
 1  2  1    -5.1832255341e-01
 1  2  2     3.5739354332e-01
 1  2  3     0.0000000000e+00
 1  3  1     0.0000000000e+00
 1  3  2     0.0000000000e+00
 1  3  3    -1.5246482185e-01
 2  1  1    -5.1832255341e-01
 2  1  2     3.5739354332e-01
 2  1  3     0.0000000000e+00
 2  2  1    -1.0545354178e-01
 2  2  2     8.9321594729e-01
 2  2  3     0.0000000000e+00
 2  3  1     0.0000000000e+00
 2  3  2     0.0000000000e+00
 2  3  3     1.6280630502e-01
 3  1  1     0.0000000000e+00
 3  1  2     0.0000000000e+00
 3  1  3    -1.5246482185e-01
 3  2  1     0.0000000000e+00
 3  2  2     0.0000000000e+00
 3  2  3     1.6280630502e-01
 3  3  1    -1.2706851748e-01
 3  3  2     4.9935946079e-01
 3  3  3     0.0000000000e+00

   14
0.0000000000e+00 0.0000000000e+00 0.0000000000e+00
0.0000000000e+00 4.3519208925e+00 0.0000000000e+00
     1      1      1
 1  1  1     0.0000000000e+00
 1  1  2     5.8164668264e-01
 1  1  3     0.0000000000e+00
 1  2  1     8.4016144985e-02
 1  2  2     0.0000000000e+00
 1  2  3     0.0000000000e+00
 1  3  1     0.0000000000e+00
 1  3  2     0.0000000000e+00
 1  3  3     0.0000000000e+00
 2  1  1     8.4016144985e-02
 2  1  2     0.0000000000e+00
 2  1  3     0.0000000000e+00
 2  2  1     0.0000000000e+00
 2  2  2    -5.3021506191e-01
 2  2  3     0.0000000000e+00
 2  3  1     0.0000000000e+00
 2  3  2     0.0000000000e+00
 2  3  3     2.8456443829e-02
 3  1  1     0.0000000000e+00
 3  1  2     0.0000000000e+00
 3  1  3     0.0000000000e+00
 3  2  1     0.0000000000e+00
 3  2  2     0.0000000000e+00
 3  2  3     2.8456443829e-02
 3  3  1     0.0000000000e+00
 3  3  2     1.2023056682e-01
 3  3  3     0.0000000000e+00

   15
0.0000000000e+00 0.0000000000e+00 0.0000000000e+00
-2.5125826988e+00 -4.3519208925e+00 0.0000000000e+00
     1      1      2
 1  1  1    -4.6813968431e-01
 1  1  2    -3.7537048560e-02
 1  1  3     0.0000000000e+00
 1  2  1    -5.1832255341e-01
 1  2  2    -3.5739354332e-01
 1  2  3     0.0000000000e+00
 1  3  1     0.0000000000e+00
 1  3  2     0.0000000000e+00
 1  3  3     1.5246482185e-01
 2  1  1    -5.1832255341e-01
 2  1  2    -3.5739354332e-01
 2  1  3     0.0000000000e+00
 2  2  1     1.0545354178e-01
 2  2  2     8.9321594729e-01
 2  2  3     0.0000000000e+00
 2  3  1     0.0000000000e+00
 2  3  2     0.0000000000e+00
 2  3  3     1.6280630502e-01
 3  1  1     0.0000000000e+00
 3  1  2     0.0000000000e+00
 3  1  3     1.5246482185e-01
 3  2  1     0.0000000000e+00
 3  2  2     0.0000000000e+00
 3  2  3     1.6280630502e-01
 3  3  1     1.2706851748e-01
 3  3  2     4.9935946079e-01
 3  3  3     0.0000000000e+00

   16
0.0000000000e+00 0.0000000000e+00 0.0000000000e+00
0.0000000000e+00 -4.3519208925e+00 0.0000000000e+00
     1      1      1
 1  1  1     0.0000000000e+00
 1  1  2     6.0939207377e-01
 1  1  3     0.0000000000e+00
 1  2  1     1.1587665348e-01
 1  2  2     0.0000000000e+00
 1  2  3     0.0000000000e+00
 1  3  1     0.0000000000e+00
 1  3  2     0.0000000000e+00
 1  3  3     0.0000000000e+00
 2  1  1     1.1587665348e-01
 2  1  2     0.0000000000e+00
 2  1  3     0.0000000000e+00
 2  2  1     0.0000000000e+00
 2  2  2    -7.1020836583e-02
 2  2  3     0.0000000000e+00
 2  3  1     0.0000000000e+00
 2  3  2     0.0000000000e+00
 2  3  3     2.7311287964e-02
 3  1  1     0.0000000000e+00
 3  1  2     0.0000000000e+00
 3  1  3     0.0000000000e+00
 3  2  1     0.0000000000e+00
 3  2  2     0.0000000000e+00
 3  2  3     2.7311287964e-02
 3  3  1     0.0000000000e+00
 3  3  2    -8.2451885365e-02
 3  3  3     0.0000000000e+00

   17
0.0000000000e+00 0.0000000000e+00 0.0000000000e+00
5.5511151231e-16 -4.3519208925e+00 0.0000000000e+00
     1      1      2
 1  1  1     0.0000000000e+00
 1  1  2    -1.5933497102e+00
 1  1  3     0.0000000000e+00
 1  2  1     9.3125529342e-01
 1  2  2     0.0000000000e+00
 1  2  3     0.0000000000e+00
 1  3  1     0.0000000000e+00
 1  3  2     0.0000000000e+00
 1  3  3     0.0000000000e+00
 2  1  1     9.3125529342e-01
 2  1  2     0.0000000000e+00
 2  1  3     0.0000000000e+00
 2  2  1     0.0000000000e+00
 2  2  2     1.5040077184e+00
 2  2  3     0.0000000000e+00
 2  3  1     0.0000000000e+00
 2  3  2     0.0000000000e+00
 2  3  3     1.9765572740e-01
 3  1  1     0.0000000000e+00
 3  1  2     0.0000000000e+00
 3  1  3     0.0000000000e+00
 3  2  1     0.0000000000e+00
 3  2  2     0.0000000000e+00
 3  2  3     1.9765572740e-01
 3  3  1     0.0000000000e+00
 3  3  2     4.0657346217e-01
 3  3  3     0.0000000000e+00

   18
0.0000000000e+00 0.0000000000e+00 0.0000000000e+00
1.2562913494e+00 -2.1759604463e+00 0.0000000000e+00
     1      1      1
 1  1  1    -6.7108134849e-01
 1  1  2     1.4923211253e+00
 1  1  3     0.0000000000e+00
 1  2  1     7.9276277019e-01
 1  2  2    -4.0017993909e+00
 1  2  3     0.0000000000e+00
 1  3  1     0.0000000000e+00
 1  3  2     0.0000000000e+00
 1  3  3     3.0872096108e-01
 2  1  1     7.9276277019e-01
 2  1  2    -4.0017993909e+00
 2  1  3     0.0000000000e+00
 2  2  1    -3.2197588734e+00
 2  2  2     1.4468182487e+00
 2  2  3     0.0000000000e+00
 2  3  1     0.0000000000e+00
 2  3  2     0.0000000000e+00
 2  3  3    -1.7033492280e+00
 3  1  1     0.0000000000e+00
 3  1  2     0.0000000000e+00
 3  1  3     3.0872096108e-01
 3  2  1     0.0000000000e+00
 3  2  2     0.0000000000e+00
 3  2  3    -1.7033492280e+00
 3  3  1    -2.7422235563e-01
 3  3  2    -6.9067435445e-02
 3  3  3     0.0000000000e+00

   19
0.0000000000e+00 0.0000000000e+00 0.0000000000e+00
1.2562913494e+00 -2.1759604463e+00 0.0000000000e+00
     1      1      2
 1  1  1    -9.7900391338e+01
 1  1  2     6.5138405301e+01
 1  1  3     0.0000000000e+00
 1  2  1     6.5386956427e+01
 1  2  2    -3.2776964838e+01
 1  2  3     0.0000000000e+00
 1  3  1     0.0000000000e+00
 1  3  2     0.0000000000e+00
 1  3  3     9.5518187244e+00
 2  1  1     6.5386956427e+01
 2  1  2    -3.2776964838e+01
 2  1  3     0.0000000000e+00
 2  2  1    -3.2346461661e+01
 2  2  2     1.0059650338e+01
 2  2  3     0.0000000000e+00
 2  3  1     0.0000000000e+00
 2  3  2     0.0000000000e+00
 2  3  3    -5.5147451118e+00
 3  1  1     0.0000000000e+00
 3  1  2     0.0000000000e+00
 3  1  3     9.5518187244e+00
 3  2  1     0.0000000000e+00
 3  2  2     0.0000000000e+00
 3  2  3    -5.5147451118e+00
 3  3  1     9.5024059874e+00
 3  3  2    -5.4862166548e+00
 3  3  3     0.0000000000e+00

   20
0.0000000000e+00 0.0000000000e+00 0.0000000000e+00
3.7688740482e+00 -2.1759604463e+00 0.0000000000e+00
     1      1      1
 1  1  1    -1.8207452607e-01
 1  1  2     1.8913692162e-01
 1  1  3     0.0000000000e+00
 1  2  1     4.3795219045e-01
 1  2  2    -2.0434507113e-01
 1  2  3     0.0000000000e+00
 1  3  1     0.0000000000e+00
 1  3  2     0.0000000000e+00
 1  3  3     2.4644003257e-02
 2  1  1     4.3795219045e-01
 2  1  2    -2.0434507113e-01
 2  1  3     0.0000000000e+00
 2  2  1     2.2661561618e-01
 2  2  2    -2.1485273199e-01
 2  2  3     0.0000000000e+00
 2  3  1     0.0000000000e+00
 2  3  2     0.0000000000e+00
 2  3  3    -1.4228221914e-02
 3  1  1     0.0000000000e+00
 3  1  2     0.0000000000e+00
 3  1  3     2.4644003257e-02
 3  2  1     0.0000000000e+00
 3  2  2     0.0000000000e+00
 3  2  3    -1.4228221914e-02
 3  3  1     1.0412272517e-01
 3  3  2    -6.0115283408e-02
 3  3  3     0.0000000000e+00

   21
0.0000000000e+00 0.0000000000e+00 0.0000000000e+00
3.7688740482e+00 -2.1759604463e+00 0.0000000000e+00
     1      1      2
 1  1  1    -6.0575977493e-02
 1  1  2    -5.9711095061e-01
 1  1  3     0.0000000000e+00
 1  2  1    -7.5755553194e-01
 1  2  2     1.4867538849e-01
 1  2  3     0.0000000000e+00
 1  3  1     0.0000000000e+00
 1  3  2     0.0000000000e+00
 1  3  3    -2.1722680696e-01
 2  1  1    -7.5755553194e-01
 2  1  2     1.4867538849e-01
 2  1  3     0.0000000000e+00
 2  2  1    -4.9912061503e-01
 2  2  2    -1.4482391179e-01
 2  2  3     0.0000000000e+00
 2  3  1     0.0000000000e+00
 2  3  2     0.0000000000e+00
 2  3  3     5.0635256398e-02
 3  1  1     0.0000000000e+00
 3  1  2     0.0000000000e+00
 3  1  3    -2.1722680696e-01
 3  2  1     0.0000000000e+00
 3  2  2     0.0000000000e+00
 3  2  3     5.0635256398e-02
 3  3  1    -4.9599223740e-01
 3  3  2    -1.3963516624e-01
 3  3  3     0.0000000000e+00

   22
0.0000000000e+00 0.0000000000e+00 0.0000000000e+00
-3.7688740482e+00 -2.1759604463e+00 0.0000000000e+00
     1      1      1
 1  1  1     1.8207452607e-01
 1  1  2     1.8913692162e-01
 1  1  3     0.0000000000e+00
 1  2  1     4.3795219045e-01
 1  2  2     2.0434507113e-01
 1  2  3     0.0000000000e+00
 1  3  1     0.0000000000e+00
 1  3  2     0.0000000000e+00
 1  3  3    -2.4644003257e-02
 2  1  1     4.3795219045e-01
 2  1  2     2.0434507113e-01
 2  1  3     0.0000000000e+00
 2  2  1    -2.2661561618e-01
 2  2  2    -2.1485273199e-01
 2  2  3     0.0000000000e+00
 2  3  1     0.0000000000e+00
 2  3  2     0.0000000000e+00
 2  3  3    -1.4228221914e-02
 3  1  1     0.0000000000e+00
 3  1  2     0.0000000000e+00
 3  1  3    -2.4644003257e-02
 3  2  1     0.0000000000e+00
 3  2  2     0.0000000000e+00
 3  2  3    -1.4228221914e-02
 3  3  1    -1.0412272517e-01
 3  3  2    -6.0115283408e-02
 3  3  3     0.0000000000e+00

   23
0.0000000000e+00 0.0000000000e+00 0.0000000000e+00
-3.7688740482e+00 -2.1759604463e+00 0.0000000000e+00
     1      1      2
 1  1  1     6.0575977493e-02
 1  1  2    -5.9711095061e-01
 1  1  3     0.0000000000e+00
 1  2  1    -7.5755553194e-01
 1  2  2    -1.4867538849e-01
 1  2  3     0.0000000000e+00
 1  3  1     0.0000000000e+00
 1  3  2     0.0000000000e+00
 1  3  3     2.1722680696e-01
 2  1  1    -7.5755553194e-01
 2  1  2    -1.4867538849e-01
 2  1  3     0.0000000000e+00
 2  2  1     4.9912061503e-01
 2  2  2    -1.4482391179e-01
 2  2  3     0.0000000000e+00
 2  3  1     0.0000000000e+00
 2  3  2     0.0000000000e+00
 2  3  3     5.0635256398e-02
 3  1  1     0.0000000000e+00
 3  1  2     0.0000000000e+00
 3  1  3     2.1722680696e-01
 3  2  1     0.0000000000e+00
 3  2  2     0.0000000000e+00
 3  2  3     5.0635256398e-02
 3  3  1     4.9599223740e-01
 3  3  2    -1.3963516624e-01
 3  3  3     0.0000000000e+00

   24
0.0000000000e+00 0.0000000000e+00 0.0000000000e+00
-1.2562913494e+00 -2.1759604463e+00 0.0000000000e+00
     1      1      1
 1  1  1     6.7108134849e-01
 1  1  2     1.4923211253e+00
 1  1  3     0.0000000000e+00
 1  2  1     7.9276277019e-01
 1  2  2     4.0017993909e+00
 1  2  3     0.0000000000e+00
 1  3  1     0.0000000000e+00
 1  3  2     0.0000000000e+00
 1  3  3    -3.0872096108e-01
 2  1  1     7.9276277019e-01
 2  1  2     4.0017993909e+00
 2  1  3     0.0000000000e+00
 2  2  1     3.2197588734e+00
 2  2  2     1.4468182487e+00
 2  2  3     0.0000000000e+00
 2  3  1     0.0000000000e+00
 2  3  2     0.0000000000e+00
 2  3  3    -1.7033492280e+00
 3  1  1     0.0000000000e+00
 3  1  2     0.0000000000e+00
 3  1  3    -3.0872096108e-01
 3  2  1     0.0000000000e+00
 3  2  2     0.0000000000e+00
 3  2  3    -1.7033492280e+00
 3  3  1     2.7422235563e-01
 3  3  2    -6.9067435445e-02
 3  3  3     0.0000000000e+00

   25
0.0000000000e+00 0.0000000000e+00 0.0000000000e+00
-1.2562913494e+00 -2.1759604463e+00 0.0000000000e+00
     1      1      2
 1  1  1     9.7900391338e+01
 1  1  2     6.5138405301e+01
 1  1  3     0.0000000000e+00
 1  2  1     6.5386956427e+01
 1  2  2     3.2776964838e+01
 1  2  3     0.0000000000e+00
 1  3  1     0.0000000000e+00
 1  3  2     0.0000000000e+00
 1  3  3    -9.5518187244e+00
 2  1  1     6.5386956427e+01
 2  1  2     3.2776964838e+01
 2  1  3     0.0000000000e+00
 2  2  1     3.2346461661e+01
 2  2  2     1.0059650338e+01
 2  2  3     0.0000000000e+00
 2  3  1     0.0000000000e+00
 2  3  2     0.0000000000e+00
 2  3  3    -5.5147451118e+00
 3  1  1     0.0000000000e+00
 3  1  2     0.0000000000e+00
 3  1  3    -9.5518187244e+00
 3  2  1     0.0000000000e+00
 3  2  2     0.0000000000e+00
 3  2  3    -5.5147451118e+00
 3  3  1    -9.5024059874e+00
 3  3  2    -5.4862166548e+00
 3  3  3     0.0000000000e+00

   26
0.0000000000e+00 0.0000000000e+00 0.0000000000e+00
0.0000000000e+00 0.0000000000e+00 0.0000000000e+00
     1      2      1
 1  1  1     0.0000000000e+00
 1  1  2     8.6155880087e+00
 1  1  3     0.0000000000e+00
 1  2  1     9.1126902597e+00
 1  2  2     0.0000000000e+00
 1  2  3     0.0000000000e+00
 1  3  1     0.0000000000e+00
 1  3  2     0.0000000000e+00
 1  3  3     0.0000000000e+00
 2  1  1     8.6155880087e+00
 2  1  2     0.0000000000e+00
 2  1  3     0.0000000000e+00
 2  2  1     0.0000000000e+00
 2  2  2    -1.5950880154e+02
 2  2  3     0.0000000000e+00
 2  3  1     0.0000000000e+00
 2  3  2     0.0000000000e+00
 2  3  3     1.1029490224e+01
 3  1  1     0.0000000000e+00
 3  1  2     0.0000000000e+00
 3  1  3     0.0000000000e+00
 3  2  1     0.0000000000e+00
 3  2  2     0.0000000000e+00
 3  2  3     1.0972433310e+01
 3  3  1     0.0000000000e+00
 3  3  2     1.1029490224e+01
 3  3  3     0.0000000000e+00

   27
0.0000000000e+00 0.0000000000e+00 0.0000000000e+00
0.0000000000e+00 0.0000000000e+00 0.0000000000e+00
     1      2      2
 1  1  1     0.0000000000e+00
 1  1  2    -1.1332882799e+01
 1  1  3     0.0000000000e+00
 1  2  1    -1.1332882799e+01
 1  2  2     0.0000000000e+00
 1  2  3     0.0000000000e+00
 1  3  1     0.0000000000e+00
 1  3  2     0.0000000000e+00
 1  3  3     0.0000000000e+00
 2  1  1    -1.1364642352e+01
 2  1  2     0.0000000000e+00
 2  1  3     0.0000000000e+00
 2  2  1     0.0000000000e+00
 2  2  2     1.5776904586e+02
 2  2  3     0.0000000000e+00
 2  3  1     0.0000000000e+00
 2  3  2     0.0000000000e+00
 2  3  3    -1.0848176924e+01
 3  1  1     0.0000000000e+00
 3  1  2     0.0000000000e+00
 3  1  3     0.0000000000e+00
 3  2  1     0.0000000000e+00
 3  2  2     0.0000000000e+00
 3  2  3    -1.2717194828e+01
 3  3  1     0.0000000000e+00
 3  3  2    -1.2717194828e+01
 3  3  3     0.0000000000e+00

   28
0.0000000000e+00 0.0000000000e+00 0.0000000000e+00
2.5125826988e+00 0.0000000000e+00 0.0000000000e+00
     1      2      1
 1  1  1     9.0810888699e-01
 1  1  2     2.3798170528e-01
 1  1  3     0.0000000000e+00
 1  2  1    -7.6941900638e-01
 1  2  2    -1.4172150303e-01
 1  2  3     0.0000000000e+00
 1  3  1     0.0000000000e+00
 1  3  2     0.0000000000e+00
 1  3  3    -4.5178315948e-01
 2  1  1     5.1795565749e-01
 2  1  2     4.3578136750e-01
 2  1  3     0.0000000000e+00
 2  2  1    -8.1833814516e-01
 2  2  2    -1.1186111221e+00
 2  2  3     0.0000000000e+00
 2  3  1     0.0000000000e+00
 2  3  2     0.0000000000e+00
 2  3  3     1.1038263931e-01
 3  1  1     0.0000000000e+00
 3  1  2     0.0000000000e+00
 3  1  3    -1.7873529124e-02
 3  2  1     0.0000000000e+00
 3  2  2     0.0000000000e+00
 3  2  3    -1.3467136435e-01
 3  3  1     5.0869825563e-01
 3  3  2     7.5511319084e-01
 3  3  3     0.0000000000e+00

   29
0.0000000000e+00 0.0000000000e+00 0.0000000000e+00
2.5125826988e+00 0.0000000000e+00 0.0000000000e+00
     1      2      2
 1  1  1     3.9332679162e-01
 1  1  2    -4.7668850895e-01
 1  1  3     0.0000000000e+00
 1  2  1     4.4647186655e-01
 1  2  2     1.0508816887e-01
 1  2  3     0.0000000000e+00
 1  3  1     0.0000000000e+00
 1  3  2     0.0000000000e+00
 1  3  3     1.1205863863e-01
 2  1  1     9.2784469728e-01
 2  1  2    -8.8071592041e-01
 2  1  3     0.0000000000e+00
 2  2  1    -1.4221285244e+00
 2  2  2     5.4135298825e-01
 2  2  3     0.0000000000e+00
 2  3  1     0.0000000000e+00
 2  3  2     0.0000000000e+00
 2  3  3    -3.2763468260e-02
 3  1  1     0.0000000000e+00
 3  1  2     0.0000000000e+00
 3  1  3    -2.1791022966e-01
 3  2  1     0.0000000000e+00
 3  2  2     0.0000000000e+00
 3  2  3    -2.1361546067e-01
 3  3  1     5.1823326169e-01
 3  3  2    -4.2074714638e-01
 3  3  3     0.0000000000e+00

   30
0.0000000000e+00 0.0000000000e+00 0.0000000000e+00
-2.5125826988e+00 0.0000000000e+00 0.0000000000e+00
     1      2      1
 1  1  1    -9.0810888699e-01
 1  1  2     2.3798170528e-01
 1  1  3     0.0000000000e+00
 1  2  1    -7.6941900638e-01
 1  2  2     1.4172150303e-01
 1  2  3     0.0000000000e+00
 1  3  1     0.0000000000e+00
 1  3  2     0.0000000000e+00
 1  3  3     4.5178315948e-01
 2  1  1     5.1795565749e-01
 2  1  2    -4.3578136750e-01
 2  1  3     0.0000000000e+00
 2  2  1     8.1833814516e-01
 2  2  2    -1.1186111221e+00
 2  2  3     0.0000000000e+00
 2  3  1     0.0000000000e+00
 2  3  2     0.0000000000e+00
 2  3  3     1.1038263931e-01
 3  1  1     0.0000000000e+00
 3  1  2     0.0000000000e+00
 3  1  3     1.7873529124e-02
 3  2  1     0.0000000000e+00
 3  2  2     0.0000000000e+00
 3  2  3    -1.3467136435e-01
 3  3  1    -5.0869825563e-01
 3  3  2     7.5511319084e-01
 3  3  3     0.0000000000e+00

   31
0.0000000000e+00 0.0000000000e+00 0.0000000000e+00
-2.5125826988e+00 0.0000000000e+00 0.0000000000e+00
     1      2      2
 1  1  1    -3.9332679162e-01
 1  1  2    -4.7668850895e-01
 1  1  3     0.0000000000e+00
 1  2  1     4.4647186655e-01
 1  2  2    -1.0508816887e-01
 1  2  3     0.0000000000e+00
 1  3  1     0.0000000000e+00
 1  3  2     0.0000000000e+00
 1  3  3    -1.1205863863e-01
 2  1  1     9.2784469728e-01
 2  1  2     8.8071592041e-01
 2  1  3     0.0000000000e+00
 2  2  1     1.4221285244e+00
 2  2  2     5.4135298825e-01
 2  2  3     0.0000000000e+00
 2  3  1     0.0000000000e+00
 2  3  2     0.0000000000e+00
 2  3  3    -3.2763468260e-02
 3  1  1     0.0000000000e+00
 3  1  2     0.0000000000e+00
 3  1  3     2.1791022966e-01
 3  2  1     0.0000000000e+00
 3  2  2     0.0000000000e+00
 3  2  3    -2.1361546067e-01
 3  3  1    -5.1823326169e-01
 3  3  2    -4.2074714638e-01
 3  3  3     0.0000000000e+00

   32
0.0000000000e+00 0.0000000000e+00 0.0000000000e+00
-1.2562913494e+00 2.1759604463e+00 0.0000000000e+00
     1      2      1
 1  1  1     1.6363838622e+00
 1  1  2     1.2529654077e+00
 1  1  3     0.0000000000e+00
 1  2  1     9.9171763452e-01
 1  2  2     6.9629275957e-01
 1  2  3     0.0000000000e+00
 1  3  1     0.0000000000e+00
 1  3  2     0.0000000000e+00
 1  3  3     1.5939411279e+00
 2  1  1    -4.7787950509e-01
 2  1  2     1.2431021194e+00
 2  1  3     0.0000000000e+00
 2  2  1    -3.0301101674e-01
 2  2  2     6.7075437211e-01
 2  2  3     0.0000000000e+00
 2  3  1     0.0000000000e+00
 2  3  2     0.0000000000e+00
 2  3  3     2.3334311486e-02
 3  1  1     0.0000000000e+00
 3  1  2     0.0000000000e+00
 3  1  3     8.5650762269e-01
 3  2  1     0.0000000000e+00
 3  2  2     0.0000000000e+00