 1468

    1
0.0000000000e+00 0.0000000000e+00 0.0000000000e+00
0.0000000000e+00 0.0000000000e+00 0.0000000000e+00
     1      1      1
 1  1  1     0.0000000000e+00
 1  1  2    -1.7569216279e+02
 1  1  3     0.0000000000e+00
 1  2  1    -1.7569216279e+02
 1  2  2     0.0000000000e+00
 1  2  3     0.0000000000e+00
 1  3  1     0.0000000000e+00
 1  3  2     0.0000000000e+00
 1  3  3     0.0000000000e+00
 2  1  1    -1.7569216279e+02
 2  1  2     0.0000000000e+00
 2  1  3     0.0000000000e+00
 2  2  1     0.0000000000e+00
 2  2  2     1.7569216279e+02
 2  2  3     0.0000000000e+00
 2  3  1     0.0000000000e+00
 2  3  2     0.0000000000e+00
 2  3  3     0.0000000000e+00
 3  1  1     0.0000000000e+00
 3  1  2     0.0000000000e+00
 3  1  3     0.0000000000e+00
 3  2  1     0.0000000000e+00
 3  2  2     0.0000000000e+00
 3  2  3     0.0000000000e+00
 3  3  1     0.0000000000e+00
 3  3  2     0.0000000000e+00
 3  3  3     0.0000000000e+00

    2
0.0000000000e+00 0.0000000000e+00 0.0000000000e+00
0.0000000000e+00 0.0000000000e+00 0.0000000000e+00
     1      1      2
 1  1  1     0.0000000000e+00
 1  1  2     1.7997715035e-02
 1  1  3     1.5718279048e-01
 1  2  1     1.7997715035e-02
 1  2  2     0.0000000000e+00
 1  2  3     0.0000000000e+00
 1  3  1     7.2566874740e-02
 1  3  2     0.0000000000e+00
 1  3  3     0.0000000000e+00
 2  1  1     1.7997715035e-02
 2  1  2     0.0000000000e+00
 2  1  3     0.0000000000e+00
 2  2  1     0.0000000000e+00
 2  2  2    -1.7997715035e-02
 2  2  3     1.5718279048e-01
 2  3  1     0.0000000000e+00
 2  3  2     7.2566874740e-02
 2  3  3     0.0000000000e+00
 3  1  1     7.2566874740e-02
 3  1  2     0.0000000000e+00
 3  1  3     0.0000000000e+00
 3  2  1     0.0000000000e+00
 3  2  2     7.2566874740e-02
 3  2  3     0.0000000000e+00
 3  3  1     0.0000000000e+00
 3  3  2     0.0000000000e+00
 3  3  3     5.7849823388e-02

    3
0.0000000000e+00 0.0000000000e+00 0.0000000000e+00
0.0000000000e+00 0.0000000000e+00 0.0000000000e+00
     1      1      3
 1  1  1     0.0000000000e+00
 1  1  2     1.0655778234e+01
 1  1  3     0.0000000000e+00
 1  2  1     1.3564264266e+01
 1  2  2     0.0000000000e+00
 1  2  3     0.0000000000e+00
 1  3  1     0.0000000000e+00
 1  3  2     0.0000000000e+00
 1  3  3     0.0000000000e+00
 2  1  1     1.3564264266e+01
 2  1  2     0.0000000000e+00
 2  1  3     0.0000000000e+00
 2  2  1     0.0000000000e+00
 2  2  2    -1.9875694615e+02
 2  2  3     0.0000000000e+00
 2  3  1     0.0000000000e+00
 2  3  2     0.0000000000e+00
 2  3  3     1.6300157946e+01
 3  1  1     0.0000000000e+00
 3  1  2     0.0000000000e+00
 3  1  3     0.0000000000e+00
 3  2  1     0.0000000000e+00
 3  2  2     0.0000000000e+00
 3  2  3     1.6300157946e+01
 3  3  1     0.0000000000e+00
 3  3  2     1.3789635303e+01
 3  3  3     0.0000000000e+00

    4
0.0000000000e+00 0.0000000000e+00 0.0000000000e+00
0.0000000000e+00 0.0000000000e+00 0.0000000000e+00
     1      1      4
 1  1  1     1.0765956384e-03
 1  1  2    -3.7133787840e-03
 1  1  3     5.6281207161e-02
 1  2  1    -9.1255023231e-03
 1  2  2    -2.7658257694e-03
 1  2  3    -4.3093176350e-03
 1  3  1    -5.1868615509e-02
 1  3  2    -2.3394643115e-02
 1  3  3    -5.8596855918e-02
 2  1  1    -9.1255023231e-03
 2  1  2    -2.7658257694e-03
 2  1  3    -4.3093176350e-03
 2  2  1     6.6082471772e-03
 2  2  2     8.1502248523e-03
 2  2  3     6.1257178554e-02
 2  3  1    -2.3394643115e-02
 2  3  2    -2.4854808508e-02
 2  3  3    -3.3830910538e-02
 3  1  1    -5.1868615509e-02
 3  1  2    -2.3394643115e-02
 3  1  3    -5.8596855918e-02
 3  2  1    -2.3394643115e-02
 3  2  2    -2.4854808508e-02
 3  2  3    -3.3830910538e-02
 3  3  1    -2.4069486727e-01
 3  3  2    -1.3896524641e-01
 3  3  3    -2.0036954014e-01

    5
0.0000000000e+00 0.0000000000e+00 0.0000000000e+00
2.4456757686e+00 0.0000000000e+00 0.0000000000e+00
     1      1      1
 1  1  1    -1.0734998893e+01
 1  1  2    -7.7644645863e-01
 1  1  3     0.0000000000e+00
 1  2  1     1.6083006710e+00
 1  2  2     2.3134371822e+00
 1  2  3     0.0000000000e+00
 1  3  1     0.0000000000e+00
 1  3  2     0.0000000000e+00
 1  3  3     2.3772441449e+00
 2  1  1     1.6083006710e+00
 2  1  2     2.3134371822e+00
 2  1  3     0.0000000000e+00
 2  2  1     2.3975236780e+00
 2  2  2     1.2188605989e+00
 2  2  3     0.0000000000e+00
 2  3  1     0.0000000000e+00
 2  3  2     0.0000000000e+00
 2  3  3     9.6544332207e-01
 3  1  1     0.0000000000e+00
 3  1  2     0.0000000000e+00
 3  1  3     2.3772441449e+00
 3  2  1     0.0000000000e+00
 3  2  2     0.0000000000e+00
 3  2  3     9.6544332207e-01
 3  3  1    -3.8791891084e-01
 3  3  2     5.7349325922e-01
 3  3  3     0.0000000000e+00

    6
0.0000000000e+00 0.0000000000e+00 0.0000000000e+00
2.4456757686e+00 0.0000000000e+00 0.0000000000e+00
     1      1      3
 1  1  1    -1.8393121099e+00
 1  1  2     1.1057046028e+00
 1  1  3     0.0000000000e+00
 1  2  1    -6.2982105032e-01
 1  2  2    -1.6151102396e+00
 1  2  3     0.0000000000e+00
 1  3  1     0.0000000000e+00
 1  3  2     0.0000000000e+00
 1  3  3     2.7977127967e-02
 2  1  1    -6.2982105032e-01
 2  1  2    -1.6151102396e+00
 2  1  3     0.0000000000e+00
 2  2  1     1.3909083694e+00
 2  2  2    -1.3645906230e+00
 2  2  3     0.0000000000e+00
 2  3  1     0.0000000000e+00
 2  3  2     0.0000000000e+00
 2  3  3     1.6152602363e-02
 3  1  1     0.0000000000e+00
 3  1  2     0.0000000000e+00
 3  1  3     2.7977127967e-02
 3  2  1     0.0000000000e+00
 3  2  2     0.0000000000e+00
 3  2  3     1.6152602363e-02
 3  3  1    -1.0019683496e-01
 3  3  2    -5.7848669635e-02
 3  3  3     0.0000000000e+00

    7
0.0000000000e+00 0.0000000000e+00 0.0000000000e+00
-2.4456757686e+00 0.0000000000e+00 0.0000000000e+00
     1      1      1
 1  1  1     1.0734998893e+01
 1  1  2    -7.7644645863e-01
 1  1  3     0.0000000000e+00
 1  2  1     1.6083006710e+00
 1  2  2    -2.3134371822e+00
 1  2  3     0.0000000000e+00
 1  3  1     0.0000000000e+00
 1  3  2     0.0000000000e+00
 1  3  3    -2.3772441449e+00
 2  1  1     1.6083006710e+00
 2  1  2    -2.3134371822e+00
 2  1  3     0.0000000000e+00
 2  2  1    -2.3975236780e+00
 2  2  2     1.2188605989e+00
 2  2  3     0.0000000000e+00
 2  3  1     0.0000000000e+00
 2  3  2     0.0000000000e+00
 2  3  3     9.6544332207e-01
 3  1  1     0.0000000000e+00
 3  1  2     0.0000000000e+00
 3  1  3    -2.3772441449e+00
 3  2  1     0.0000000000e+00
 3  2  2     0.0000000000e+00
 3  2  3     9.6544332207e-01
 3  3  1     3.8791891084e-01
 3  3  2     5.7349325922e-01
 3  3  3     0.0000000000e+00

    8
0.0000000000e+00 0.0000000000e+00 0.0000000000e+00
-2.4456757686e+00 0.0000000000e+00 0.0000000000e+00
     1      1      3
 1  1  1     1.8393121099e+00
 1  1  2     1.1057046028e+00
 1  1  3     0.0000000000e+00
 1  2  1    -6.2982105032e-01
 1  2  2     1.6151102396e+00
 1  2  3     0.0000000000e+00
 1  3  1     0.0000000000e+00
 1  3  2     0.0000000000e+00
 1  3  3    -2.7977127967e-02
 2  1  1    -6.2982105032e-01
 2  1  2     1.6151102396e+00
 2  1  3     0.0000000000e+00
 2  2  1    -1.3909083694e+00
 2  2  2    -1.3645906230e+00
 2  2  3     0.0000000000e+00
 2  3  1     0.0000000000e+00
 2  3  2     0.0000000000e+00
 2  3  3     1.6152602363e-02
 3  1  1     0.0000000000e+00
 3  1  2     0.0000000000e+00
 3  1  3    -2.7977127967e-02
 3  2  1     0.0000000000e+00
 3  2  2     0.0000000000e+00
 3  2  3     1.6152602363e-02
 3  3  1     1.0019683496e-01
 3  3  2    -5.7848669635e-02
 3  3  3     0.0000000000e+00

    9
0.0000000000e+00 0.0000000000e+00 0.0000000000e+00
-2.4456757686e+00 0.0000000000e+00 0.0000000000e+00
     1      1      4
 1  1  1    -1.0765956384e-03
 1  1  2    -3.7133787840e-03
 1  1  3     5.6281207161e-02
 1  2  1    -9.1255023231e-03
 1  2  2     2.7658257694e-03
 1  2  3     4.3093176350e-03
 1  3  1    -5.1868615509e-02
 1  3  2     2.3394643115e-02
 1  3  3     5.8596855918e-02
 2  1  1    -9.1255023231e-03
 2  1  2     2.7658257694e-03
 2  1  3     4.3093176350e-03
 2  2  1    -6.6082471772e-03
 2  2  2     8.1502248523e-03
 2  2  3     6.1257178554e-02
 2  3  1     2.3394643115e-02
 2  3  2    -2.4854808508e-02
 2  3  3    -3.3830910538e-02
 3  1  1    -5.1868615509e-02
 3  1  2     2.3394643115e-02
 3  1  3     5.8596855918e-02
 3  2  1     2.3394643115e-02
 3  2  2    -2.4854808508e-02
 3  2  3    -3.3830910538e-02
 3  3  1     2.4069486727e-01
 3  3  2    -1.3896524641e-01
 3  3  3    -2.0036954014e-01

   10
0.0000000000e+00 0.0000000000e+00 0.0000000000e+00
-1.2228378843e+00 2.1180173451e+00 0.0000000000e+00
     1      1      1
 1  1  1    -2.6122566156e+00
 1  1  2    -9.2249722824e-01
 1  1  3     0.0000000000e+00
 1  2  1    -2.1876918345e+00
 1  2  2     4.3746439907e+00
 1  2  3     0.0000000000e+00
 1  3  1     0.0000000000e+00
 1  3  2     0.0000000000e+00
 1  3  3    -2.0247205153e+00
 2  1  1    -2.1876918345e+00
 2  1  2     4.3746439907e+00
 2  1  3     0.0000000000e+00
 2  2  1     6.3978523387e+00
 2  2  2    -6.5191751818e+00
 2  2  3     0.0000000000e+00
 2  3  1     0.0000000000e+00
 2  3  2     0.0000000000e+00
 2  3  3     1.5760321594e+00
 3  1  1     0.0000000000e+00
 3  1  2     0.0000000000e+00
 3  1  3    -2.0247205153e+00
 3  2  1     0.0000000000e+00
 3  2  2     0.0000000000e+00
 3  2  3     1.5760321594e+00
 3  3  1    -3.0270027596e-01
 3  3  2    -6.2269426101e-01
 3  3  3     0.0000000000e+00

   11
0.0000000000e+00 0.0000000000e+00 0.0000000000e+00
-1.2228378843e+00 2.1180173451e+00 0.0000000000e+00
     1      1      3
 1  1  1     1.1949033418e-01
 1  1  2    -8.0236039223e-01
 1  1  3     0.0000000000e+00
 1  2  1    -4.9046489195e-01
 1  2  2     7.0980254234e-02
 1  2  3     0.0000000000e+00
 1  3  1     0.0000000000e+00
 1  3  2     0.0000000000e+00
 1  3  3    -1.3804424782e-01
 2  1  1    -4.9046489195e-01
 2  1  2     7.0980254234e-02
 2  1  3     0.0000000000e+00
 2  2  1     4.8643110527e-01
 2  2  2     1.1797317430e+00
 2  2  3     0.0000000000e+00
 2  3  1     0.0000000000e+00
 2  3  2     0.0000000000e+00
 2  3  3    -1.0401939982e-01
 3  1  1     0.0000000000e+00
 3  1  2     0.0000000000e+00
 3  1  3    -1.3804424782e-01
 3  2  1     0.0000000000e+00
 3  2  2     0.0000000000e+00
 3  2  3    -1.0401939982e-01
 3  3  1     1.6070265886e-01
 3  3  2    -1.7699397649e-01
 3  3  3     0.0000000000e+00

   12
0.0000000000e+00 0.0000000000e+00 0.0000000000e+00
1.2228378843e+00 2.1180173451e+00 0.0000000000e+00
     1      1      1
 1  1  1     2.6122566156e+00
 1  1  2    -9.2249722824e-01
 1  1  3     0.0000000000e+00
 1  2  1    -2.1876918345e+00
 1  2  2    -4.3746439907e+00
 1  2  3     0.0000000000e+00
 1  3  1     0.0000000000e+00
 1  3  2     0.0000000000e+00
 1  3  3     2.0247205153e+00
 2  1  1    -2.1876918345e+00
 2  1  2    -4.3746439907e+00
 2  1  3     0.0000000000e+00
 2  2  1    -6.3978523387e+00
 2  2  2    -6.5191751818e+00
 2  2  3     0.0000000000e+00
 2  3  1     0.0000000000e+00
 2  3  2     0.0000000000e+00
 2  3  3     1.5760321594e+00
 3  1  1     0.0000000000e+00
 3  1  2     0.0000000000e+00
 3  1  3     2.0247205153e+00
 3  2  1     0.0000000000e+00
 3  2  2     0.0000000000e+00
 3  2  3     1.5760321594e+00
 3  3  1     3.0270027596e-01
 3  3  2    -6.2269426101e-01
 3  3  3     0.0000000000e+00

   13
0.0000000000e+00 0.0000000000e+00 0.0000000000e+00
1.2228378843e+00 2.1180173451e+00 0.0000000000e+00
     1      1      3
 1  1  1    -1.1949033418e-01
 1  1  2    -8.0236039223e-01
 1  1  3     0.0000000000e+00
 1  2  1    -4.9046489195e-01
 1  2  2    -7.0980254234e-02
 1  2  3     0.0000000000e+00
 1  3  1     0.0000000000e+00
 1  3  2     0.0000000000e+00
 1  3  3     1.3804424782e-01
 2  1  1    -4.9046489195e-01
 2  1  2    -7.0980254234e-02
 2  1  3     0.0000000000e+00
 2  2  1    -4.8643110527e-01
 2  2  2     1.1797317430e+00
 2  2  3     0.0000000000e+00
 2  3  1     0.0000000000e+00
 2  3  2     0.0000000000e+00
 2  3  3    -1.0401939982e-01
 3  1  1     0.0000000000e+00
 3  1  2     0.0000000000e+00
 3  1  3     1.3804424782e-01
 3  2  1     0.0000000000e+00
 3  2  2     0.0000000000e+00
 3  2  3    -1.0401939982e-01
 3  3  1    -1.6070265886e-01
 3  3  2    -1.7699397649e-01
 3  3  3     0.0000000000e+00

   14
0.0000000000e+00 0.0000000000e+00 0.0000000000e+00
2.4456757686e+00 -4.2360346901e+00 0.0000000000e+00
     1      1      3
 1  1  1     6.3074774255e-01
 1  1  2    -3.9887168825e-01
 1  1  3     0.0000000000e+00
 1  2  1    -9.1461042941e-01
 1  2  2     6.1410154678e-02
 1  2  3     0.0000000000e+00
 1  3  1     0.0000000000e+00
 1  3  2     0.0000000000e+00
 1  3  3    -1.5910556664e-01
 2  1  1    -9.1461042941e-01
 2  1  2     6.1410154678e-02
 2  1  3     0.0000000000e+00
 2  2  1    -9.7384636569e-04
 2  2  2     7.3492937211e-01
 2  2  3     0.0000000000e+00
 2  3  1     0.0000000000e+00
 2  3  2     0.0000000000e+00
 2  3  3    -6.7540125549e-02
 3  1  1     0.0000000000e+00
 3  1  2     0.0000000000e+00
 3  1  3    -1.5910556664e-01
 3  2  1     0.0000000000e+00
 3  2  2     0.0000000000e+00
 3  2  3    -6.7540125549e-02
 3  3  1    -7.2929950531e-02
 3  3  2     2.2766957327e-01
 3  3  3     0.0000000000e+00

   15
0.0000000000e+00 0.0000000000e+00 0.0000000000e+00
-2.4456757686e+00 -4.2360346901e+00 0.0000000000e+00
     1      1      3
 1  1  1    -6.3074774255e-01
 1  1  2    -3.9887168825e-01
 1  1  3     0.0000000000e+00
 1  2  1    -9.1461042941e-01
 1  2  2    -6.1410154678e-02
 1  2  3     0.0000000000e+00
 1  3  1     0.0000000000e+00
 1  3  2     0.0000000000e+00
 1  3  3     1.5910556664e-01
 2  1  1    -9.1461042941e-01
 2  1  2    -6.1410154678e-02
 2  1  3     0.0000000000e+00
 2  2  1     9.7384636569e-04
 2  2  2     7.3492937211e-01
 2  2  3     0.0000000000e+00
 2  3  1     0.0000000000e+00
 2  3  2     0.0000000000e+00
 2  3  3    -6.7540125549e-02
 3  1  1     0.0000000000e+00
 3  1  2     0.0000000000e+00
 3  1  3     1.5910556664e-01
 3  2  1     0.0000000000e+00
 3  2  2     0.0000000000e+00
 3  2  3    -6.7540125549e-02
 3  3  1     7.2929950531e-02
 3  3  2     2.2766957327e-01
 3  3  3     0.0000000000e+00

   16
0.0000000000e+00 0.0000000000e+00 0.0000000000e+00
0.0000000000e+00 -4.2360346901e+00 0.0000000000e+00
     1      1      3
 1  1  1     0.0000000000e+00
 1  1  2    -1.3034193617e+00
 1  1  3     0.0000000000e+00
 1  2  1     2.1676319445e+00
 1  2  2     0.0000000000e+00
 1  2  3     0.0000000000e+00
 1  3  1     0.0000000000e+00
 1  3  2     0.0000000000e+00
 1  3  3     0.0000000000e+00
 2  1  1     2.1676319445e+00
 2  1  2     0.0000000000e+00
 2  1  3     0.0000000000e+00
 2  2  1     0.0000000000e+00
 2  2  2     1.8211914022e+00
 2  2  3     0.0000000000e+00
 2  3  1     0.0000000000e+00
 2  3  2     0.0000000000e+00
 2  3  3    -3.2305204726e-02
 3  1  1     0.0000000000e+00
 3  1  2     0.0000000000e+00
 3  1  3     0.0000000000e+00
 3  2  1     0.0000000000e+00
 3  2  2     0.0000000000e+00
 3  2  3    -3.2305204726e-02
 3  3  1     0.0000000000e+00
 3  3  2     1.1569733927e-01
 3  3  3     0.0000000000e+00

   17
0.0000000000e+00 0.0000000000e+00 0.0000000000e+00
1.2228378843e+00 -2.1180173451e+00 0.0000000000e+00
     1      1      1
 1  1  1    -2.7707807072e-02
 1  1  2     2.6149144002e+00
 1  1  3     0.0000000000e+00
 1  2  1     1.4953618769e+00
 1  2  2    -6.6314665289e+00
 1  2  3     0.0000000000e+00
 1  3  1     0.0000000000e+00
 1  3  2     0.0000000000e+00
 1  3  3     3.5252362962e-01
 2  1  1     1.4953618769e+00
 2  1  2    -6.6314665289e+00
 2  1  3     0.0000000000e+00
 2  2  1    -4.5241716851e+00
 2  2  2     4.3843438695e+00
 2  2  3     0.0000000000e+00
 2  3  1     0.0000000000e+00
 2  3  2     0.0000000000e+00
 2  3  3    -2.5414754815e+00
 3  1  1     0.0000000000e+00
 3  1  2     0.0000000000e+00
 3  1  3     3.5252362962e-01
 3  2  1     0.0000000000e+00
 3  2  2     0.0000000000e+00
 3  2  3    -2.5414754815e+00
 3  3  1    -6.9061918680e-01
 3  3  2     4.9201001788e-02
 3  3  3     0.0000000000e+00

   18
0.0000000000e+00 0.0000000000e+00 0.0000000000e+00
1.2228378843e+00 -2.1180173451e+00 0.0000000000e+00
     1      1      3
 1  1  1    -1.2091588103e+02
 1  1  2     8.3375080728e+01
 1  1  3     0.0000000000e+00
 1  2  1     8.1920837712e+01
 1  2  2    -3.9465686080e+01
 1  2  3     0.0000000000e+00
 1  3  1     0.0000000000e+00
 1  3  2     0.0000000000e+00
 1  3  3     1.4116350867e+01
 2  1  1     8.1920837712e+01
 2  1  2    -3.9465686080e+01
 2  1  3     0.0000000000e+00
 2  2  1    -4.1984508870e+01
 2  2  2     1.0675503232e+01
 2  2  3     0.0000000000e+00
 2  3  1     0.0000000000e+00
 2  3  2     0.0000000000e+00
 2  3  3    -8.1500789731e+00
 3  1  1     0.0000000000e+00
 3  1  2     0.0000000000e+00
 3  1  3     1.4116350867e+01
 3  2  1     0.0000000000e+00
 3  2  2     0.0000000000e+00
 3  2  3    -8.1500789731e+00
 3  3  1     1.1942174482e+01
 3  3  2    -6.8948176516e+00
 3  3  3     0.0000000000e+00

   19
0.0000000000e+00 0.0000000000e+00 0.0000000000e+00
3.6685136529e+00 -2.1180173451e+00 0.0000000000e+00
     1      1      3
 1  1  1     1.2958144870e-01
 1  1  2    -1.0210343589e+00
 1  1  3     0.0000000000e+00
 1  2  1    -8.1719111802e-01
 1  2  2     3.7210586012e-01
 1  2  3     0.0000000000e+00
 1  3  1     0.0000000000e+00
 1  3  2     0.0000000000e+00
 1  3  3    -2.1061318820e-02
 2  1  1    -8.1719111802e-01
 2  1  2     3.7210586012e-01
 2  1  3     0.0000000000e+00
 2  2  1    -1.0572899197e-01
 2  2  2     3.0760532423e-01
 2  2  3     0.0000000000e+00
 2  3  1     0.0000000000e+00
 2  3  2     0.0000000000e+00
 2  3  3     1.7155952537e-01
 3  1  1     0.0000000000e+00
 3  1  2     0.0000000000e+00
 3  1  3    -2.1061318820e-02
 3  2  1     0.0000000000e+00
 3  2  2     0.0000000000e+00
 3  2  3     1.7155952537e-01
 3  3  1    -2.3363260939e-01
 3  3  2    -5.0675596780e-02
 3  3  3     0.0000000000e+00

   20
0.0000000000e+00 0.0000000000e+00 0.0000000000e+00
-3.6685136529e+00 -2.1180173451e+00 0.0000000000e+00
     1      1      3
 1  1  1    -1.2958144870e-01
 1  1  2    -1.0210343589e+00
 1  1  3     0.0000000000e+00
 1  2  1    -8.1719111802e-01
 1  2  2    -3.7210586012e-01
 1  2  3     0.0000000000e+00
 1  3  1     0.0000000000e+00
 1  3  2     0.0000000000e+00
 1  3  3     2.1061318820e-02
 2  1  1    -8.1719111802e-01
 2  1  2    -3.7210586012e-01
 2  1  3     0.0000000000e+00
 2  2  1     1.0572899197e-01
 2  2  2     3.0760532423e-01
 2  2  3     0.0000000000e+00
 2  3  1     0.0000000000e+00
 2  3  2     0.0000000000e+00
 2  3  3     1.7155952537e-01
 3  1  1     0.0000000000e+00
 3  1  2     0.0000000000e+00
 3  1  3     2.1061318820e-02
 3  2  1     0.0000000000e+00
 3  2  2     0.0000000000e+00
 3  2  3     1.7155952537e-01
 3  3  1     2.3363260939e-01
 3  3  2    -5.0675596780e-02
 3  3  3     0.0000000000e+00

   21
0.0000000000e+00 0.0000000000e+00 0.0000000000e+00
-1.2228378843e+00 -2.1180173451e+00 0.0000000000e+00
     1      1      1
 1  1  1     2.7707807072e-02
 1  1  2     2.6149144002e+00
 1  1  3     0.0000000000e+00
 1  2  1     1.4953618769e+00
 1  2  2     6.6314665289e+00
 1  2  3     0.0000000000e+00
 1  3  1     0.0000000000e+00
 1  3  2     0.0000000000e+00
 1  3  3    -3.5252362962e-01
 2  1  1     1.4953618769e+00
 2  1  2     6.6314665289e+00
 2  1  3     0.0000000000e+00
 2  2  1     4.5241716851e+00
 2  2  2     4.3843438695e+00
 2  2  3     0.0000000000e+00
 2  3  1     0.0000000000e+00
 2  3  2     0.0000000000e+00
 2  3  3    -2.5414754815e+00
 3  1  1     0.0000000000e+00
 3  1  2     0.0000000000e+00
 3  1  3    -3.5252362962e-01
 3  2  1     0.0000000000e+00
 3  2  2     0.0000000000e+00
 3  2  3    -2.5414754815e+00
 3  3  1     6.9061918680e-01
 3  3  2     4.9201001788e-02
 3  3  3     0.0000000000e+00

   22
0.0000000000e+00 0.0000000000e+00 0.0000000000e+00
-1.2228378843e+00 -2.1180173451e+00 0.0000000000e+00
     1      1      3
 1  1  1     1.2091588103e+02
 1  1  2     8.3375080728e+01
 1  1  3     0.0000000000e+00
 1  2  1     8.1920837712e+01
 1  2  2     3.9465686080e+01
 1  2  3     0.0000000000e+00
 1  3  1     0.0000000000e+00
 1  3  2     0.0000000000e+00
 1  3  3    -1.4116350867e+01
 2  1  1     8.1920837712e+01
 2  1  2     3.9465686080e+01
 2  1  3     0.0000000000e+00
 2  2  1     4.1984508870e+01
 2  2  2     1.0675503232e+01
 2  2  3     0.0000000000e+00
 2  3  1     0.0000000000e+00
 2  3  2     0.0000000000e+00
 2  3  3    -8.1500789731e+00
 3  1  1     0.0000000000e+00
 3  1  2     0.0000000000e+00
 3  1  3    -1.4116350867e+01
 3  2  1     0.0000000000e+00
 3  2  2     0.0000000000e+00
 3  2  3    -8.1500789731e+00
 3  3  1    -1.1942174482e+01
 3  3  2    -6.8948176516e+00
 3  3  3     0.0000000000e+00

   23
0.0000000000e+00 0.0000000000e+00 0.0000000000e+00
-1.2228378843e+00 -2.1180173451e+00 0.0000000000e+00
     1      1      4
 1  1  1     0.0000000000e+00
 1  1  2    -1.5159198644e-02
 1  1  3     6.3745164250e-02
 1  2  1    -4.3349515656e-03
 1  2  2     0.0000000000e+00
 1  2  3     0.0000000000e+00
 1  3  1    -1.1347905008e-02
 1  3  2     0.0000000000e+00
 1  3  3     0.0000000000e+00
 2  1  1    -4.3349515656e-03
 2  1  2     0.0000000000e+00
 2  1  3     0.0000000000e+00
 2  2  1     0.0000000000e+00
 2  2  2     6.2855065074e-03
 2  2  3     5.3793221464e-02
 2  3  1     0.0000000000e+00
 2  3  2    -6.5375519009e-02
 2  3  3     6.7661821076e-02
 3  1  1    -1.1347905008e-02
 3  1  2     0.0000000000e+00
 3  1  3     0.0000000000e+00
 3  2  1     0.0000000000e+00
 3  2  2    -6.5375519009e-02
 3  2  3     6.7661821076e-02
 3  3  1     0.0000000000e+00
 3  3  2     2.7793049282e-01
 3  3  3    -2.0036954014e-01

   24
0.0000000000e+00 0.0000000000e+00 0.0000000000e+00
0.0000000000e+00 0.0000000000e+00 -6.3961933609e+00
     1      1      2
 1  1  1     0.0000000000e+00
 1  1  2     1.7997715035e-02
 1  1  3    -1.5718279048e-01
 1  2  1     1.7997715035e-02
 1  2  2     0.0000000000e+00
 1  2  3     0.0000000000e+00
 1  3  1    -7.2566874740e-02
 1  3  2     0.0000000000e+00
 1  3  3     0.0000000000e+00
 2  1  1     1.7997715035e-02
 2  1  2     0.0000000000e+00
 2  1  3     0.0000000000e+00
 2  2  1     0.0000000000e+00
 2  2  2    -1.7997715035e-02
 2  2  3    -1.5718279048e-01
 2  3  1     0.0000000000e+00
 2  3  2    -7.2566874740e-02
 2  3  3     0.0000000000e+00
 3  1  1    -7.2566874740e-02
 3  1  2     0.0000000000e+00
 3  1  3     0.0000000000e+00
 3  2  1     0.0000000000e+00
 3  2  2    -7.2566874740e-02
 3  2  3     0.0000000000e+00
 3  3  1     0.0000000000e+00
 3  3  2     0.0000000000e+00
 3  3  3    -5.7849823388e-02

   25
0.0000000000e+00 0.0000000000e+00 0.0000000000e+00
0.0000000000e+00 0.0000000000e+00 -6.3961933609e+00
     1      1      4
 1  1  1     1.0765956384e-03
 1  1  2    -3.7133787840e-03
 1  1  3    -5.6281207161e-02
 1  2  1    -9.1255023231e-03
 1  2  2    -2.7658257694e-03
 1  2  3     4.3093176350e-03
 1  3  1     5.1868615509e-02
 1  3  2     2.3394643115e-02
 1  3  3    -5.8596855918e-02
 2  1  1    -9.1255023231e-03
 2  1  2    -2.7658257694e-03
 2  1  3     4.3093176350e-03
 2  2  1     6.6082471772e-03
 2  2  2     8.1502248523e-03
 2  2  3    -6.1257178554e-02
 2  3  1     2.3394643115e-02
 2  3  2     2.4854808508e-02
 2  3  3    -3.3830910538e-02
 3  1  1     5.1868615509e-02
 3  1  2     2.3394643115e-02
 3  1  3    -5.8596855918e-02
 3  2  1     2.3394643115e-02
 3  2  2     2.4854808508e-02
 3  2  3    -3.3830910538e-02
 3  3  1    -2.4069486727e-01
 3  3  2    -1.3896524641e-01
 3  3  3     2.0036954014e-01

   26
0.0000000000e+00 0.0000000000e+00 0.0000000000e+00
-2.4456757686e+00 0.0000000000e+00 -6.3961933609e+00
     1      1      4
 1  1  1    -1.0765956384e-03
 1  1  2    -3.7133787840e-03
 1  1  3    -5.6281207161e-02
 1  2  1    -9.1255023231e-03
 1  2  2     2.7658257694e-03
 1  2  3    -4.3093176350e-03
 1  3  1     5.1868615509e-02
 1  3  2    -2.3394643115e-02
 1  3  3     5.8596855918e-02
 2  1  1    -9.1255023231e-03
 2  1  2     2.7658257694e-03
 2  1  3    -4.3093176350e-03
 2  2  1    -6.6082471772e-03
 2  2  2     8.1502248523e-03
 2  2  3    -6.1257178554e-02
 2  3  1    -2.3394643115e-02
 2  3  2     2.4854808508e-02
 2  3  3    -3.3830910538e-02
 3  1  1     5.1868615509e-02
 3  1  2    -2.3394643115e-02
 3  1  3     5.8596855918e-02
 3  2  1    -2.3394643115e-02
 3  2  2     2.4854808508e-02
 3  2  3    -3.3830910538e-02
 3  3  1     2.4069486727e-01
 3  3  2    -1.3896524641e-01
 3  3  3     2.0036954014e-01

   27
0.0000000000e+00 0.0000000000e+00 0.0000000000e+00
-1.2228378843e+00 -2.1180173451e+00 -6.3961933609e+00
     1      1      4
 1  1  1     0.0000000000e+00
 1  1  2    -1.5159198644e-02
 1  1  3    -6.3745164250e-02
 1  2  1    -4.3349515656e-03
 1  2  2     0.0000000000e+00
 1  2  3     0.0000000000e+00
 1  3  1     1.1347905008e-02
 1  3  2     0.0000000000e+00
 1  3  3     0.0000000000e+00
 2  1  1    -4.3349515656e-03
 2  1  2     0.0000000000e+00
 2  1  3     0.0000000000e+00
 2  2  1     0.0000000000e+00
 2  2  2     6.2855065074e-03
 2  2  3    -5.3793221464e-02
 2  3  1     0.0000000000e+00
 2  3  2     6.5375519009e-02
 2  3  3     6.7661821076e-02
 3  1  1     1.1347905008e-02
 3  1  2     0.0000000000e+00
 3  1  3     0.0000000000e+00
 3  2  1     0.0000000000e+00
 3  2  2     6.5375519009e-02
 3  2  3     6.7661821076e-02
 3  3  1     0.0000000000e+00
 3  3  2     2.7793049282e-01
 3  3  3     2.0036954014e-01

   28
0.0000000000e+00 0.0000000000e+00 0.0000000000e+00
0.0000000000e+00 0.0000000000e+00 0.0000000000e+00
     1      2      1
 1  1  1     0.0000000000e+00
 1  1  2     1.7997715035e-02
 1  1  3     7.2566874740e-02
 1  2  1     1.7997715035e-02
 1  2  2     0.0000000000e+00
 1  2  3     0.0000000000e+00
 1  3  1     1.5718279048e-01
 1  3  2     0.0000000000e+00
 1  3  3     0.0000000000e+00
 2  1  1     1.7997715035e-02
 2  1  2     0.0000000000e+00
 2  1  3     0.0000000000e+00
 2  2  1     0.0000000000e+00
 2  2  2    -1.7997715035e-02
 2  2  3     7.2566874740e-02
 2  3  1     0.0000000000e+00
 2  3  2     1.5718279048e-01
 2  3  3     0.0000000000e+00
 3  1  1     7.2566874740e-02
 3  1  2     0.0000000000e+00
 3  1  3     0.0000000000e+00
 3  2  1     0.0000000000e+00
 3  2  2     7.2566874740e-02
 3  2  3     0.0000000000e+00
 3  3  1     0.0000000000e+00
 3  3  2     0.0000000000e+00
 3  3  3     5.7849823388e-02

   29
0.0000000000e+00 0.0000000000e+00 0.0000000000e+00
0.0000000000e+00 0.0000000000e+00 0.0000000000e+00
     1      2      2
 1  1  1     0.0000000000e+00
 1  1  2    -1.7997715035e-02
 1  1  3    -7.2566874740e-02
 1  2  1    -1.7997715035e-02
 1  2  2     0.0000000000e+00
 1  2  3     0.0000000000e+00
 1  3  1    -7.2566874740e-02
 1  3  2     0.0000000000e+00
 1  3  3     0.0000000000e+00
 2  1  1    -1.7997715035e-02
 2  1  2     0.0000000000e+00
 2  1  3     0.0000000000e+00
 2  2  1     0.0000000000e+00
 2  2  2     1.7997715035e-02
 2  2  3    -7.2566874740e-02
 2  3  1     0.0000000000e+00
 2  3  2    -7.2566874740e-02
 2  3  3     0.0000000000e+00
 3  1  1    -1.5718279048e-01
 3  1  2     0.0000000000e+00
 3  1  3     0.0000000000e+00
 3  2  1     0.0000000000e+00
 3  2  2    -1.5718279048e-01
 3  2  3     0.0000000000e+00
 3  3  1     0.0000000000e+00
 3  3  2     0.0000000000e+00
 3  3  3    -5.7849823388e-02

   30
0.0000000000e+00 0.0000000000e+00 0.0000000000e+00
0.0000000000e+00 0.0000000000e+00 0.0000000000e+00
     1      2      3
 1  1  1     0.0000000000e+00
 1  1  2     2.0968186862e-02
 1  1  3    -2.4217901694e-02
 1  2  1    -1.3054930433e-02
 1  2  2     0.0000000000e+00
 1  2  3     0.0000000000e+00
 1  3  1     1.5739950266e-02
 1  3  2     0.0000000000e+00
 1  3  3     0.0000000000e+00
 2  1  1     6.2937319274e-03
 2  1  2     0.0000000000e+00
 2  1  3     0.0000000000e+00
 2  2  1     0.0000000000e+00
 2  2  2     1.3926171330e-02
 2  2  3    -1.0546744175e-02
 2  3  1     0.0000000000e+00
 2  3  2    -5.9660414808e-02
 2  3  3    -5.5944300939e-02
 3  1  1     6.7513598284e-03
 3  1  2     0.0000000000e+00
 3  1  3     0.0000000000e+00
 3  2  1     0.0000000000e+00
 3  2  2     5.7383998168e-03
 3  2  3    -1.9297334030e-03
 3  3  1     0.0000000000e+00
 3  3  2     1.7612051469e-01
 3  3  3    -1.6742097904e-01

   31
0.0000000000e+00 0.0000000000e+00 0.0000000000e+00
0.0000000000e+00 0.0000000000e+00 0.0000000000e+00
     1      2      4
 1  1  1     1.2121216819e-02
 1  1  2     1.0378787046e-02
 1  1  3     1.3964533555e-02
 1  2  1     3.0415595788e-03
 1  2  2    -1.1366700069e-02
 1  2  3    -5.9197848551e-03
 1  3  1    -5.9916398197e-03
 1  3  2     4.3862455153e-04
 1  3  3    -1.6711981496e-03
 2  1  1    -6.6327716015e-03
 2  1  2     5.3897330641e-03
 2  1  3    -5.9197848551e-03
 2  2  1     1.8098183824e-02
 2  2  2     7.0683920499e-03
 2  2  3     2.0800112314e-02
 2  3  1     4.3862455153e-04
 2  3  2    -6.4981198255e-03
 2  3  3    -9.6486670152e-04
 3  1  1     4.0810323540e-02
 3  1  2     3.2649315804e-02
 3  1  3    -4.8449185811e-02
 3  2  1     3.2649315804e-02
 3  2  2     3.1101410029e-03
 3  2  3    -2.7972150470e-02
 3  3  1     1.5252483985e-01
 3  3  2     8.8060257346e-02
 3  3  3     1.6742097904e-01

   32
0.0000000000e+00 0.0000000000e+00 0.0000000000e+00
-2.4456757686e+00 0.0000000000e+00 0.0000000000e+00
     1      2      4
 1  1  1    -1.2121216819e-02
 1  1  2     1.0378787046e-02
 1  1  3     1.3964533555e-02
 1  2  1     3.0415595788e-03
 1  2  2     1.1366700069e-02
 1  2  3     5.9197848551e-03
 1  3  1    -5.9916398197e-03
 1  3  2    -4.3862455153e-04
 1  3  3     1.6711981496e-03
 2  1  1    -6.6327716015e-03
 2  1  2    -5.3897330641e-03
 2  1  3     5.9197848551e-03
 2  2  1    -1.8098183824e-02
 2  2  2     7.0683920499e-03
 2  2  3     2.0800112314e-02
 2  3  1    -4.3862455153e-04
 2  3  2    -6.4981198255e-03
 2  3  3    -9.6486670152e-04
 3  1  1     4.0810323540e-02
 3  1  2    -3.2649315804e-02
 3  1  3     4.8449185811e-02
 3  2  1    -3.2649315804e-02
 3  2  2     3.1101410029e-03