 1824

    1
0.0000000000e+00 0.0000000000e+00 0.0000000000e+00
0.0000000000e+00 0.0000000000e+00 0.0000000000e+00
     1      1      1
 1  1  1     0.0000000000e+00
 1  1  2     0.0000000000e+00
 1  1  3     0.0000000000e+00
 1  2  1     0.0000000000e+00
 1  2  2     0.0000000000e+00
 1  2  3     0.0000000000e+00
 1  3  1     0.0000000000e+00
 1  3  2     0.0000000000e+00
 1  3  3     0.0000000000e+00
 2  1  1     0.0000000000e+00
 2  1  2     0.0000000000e+00
 2  1  3     0.0000000000e+00
 2  2  1     0.0000000000e+00
 2  2  2     0.0000000000e+00
 2  2  3     0.0000000000e+00
 2  3  1     0.0000000000e+00
 2  3  2     0.0000000000e+00
 2  3  3     0.0000000000e+00
 3  1  1     0.0000000000e+00
 3  1  2     0.0000000000e+00
 3  1  3     0.0000000000e+00
 3  2  1     0.0000000000e+00
 3  2  2     0.0000000000e+00
 3  2  3     0.0000000000e+00
 3  3  1     0.0000000000e+00
 3  3  2     0.0000000000e+00
 3  3  3     0.0000000000e+00

    2
0.0000000000e+00 0.0000000000e+00 0.0000000000e+00
0.0000000000e+00 0.0000000000e+00 0.0000000000e+00
     1      1      3
 1  1  1    -1.8850955582e-01
 1  1  2     7.6577695367e-01
 1  1  3    -9.5170357398e+00
 1  2  1     1.4426733504e+00
 1  2  2    -4.5364283564e-01
 1  2  3     4.9617421751e+00
 1  3  1    -9.8111545891e+00
 1  3  2     5.9673209965e+00
 1  3  3     1.0346883194e+01
 2  1  1     1.4426733504e+00
 2  1  2    -4.5364283564e-01
 2  1  3     4.9617421751e+00
 2  2  1     7.1877611435e-01
 2  2  2    -1.0719264935e+00
 2  2  3    -3.7877093764e+00
 2  3  1     5.9673209965e+00
 2  3  2    -2.9206858200e+00
 2  3  3    -5.9737757965e+00
 3  1  1    -9.8111545891e+00
 3  1  2     5.9673209965e+00
 3  1  3     1.0346883194e+01
 3  2  1     5.9673209965e+00
 3  2  2    -2.9206858200e+00
 3  2  3    -5.9737757965e+00
 3  3  1     1.0294366022e+01
 3  3  2    -5.9434549928e+00
 3  3  3    -1.0942555217e+01

    3
0.0000000000e+00 0.0000000000e+00 0.0000000000e+00
0.0000000000e+00 0.0000000000e+00 0.0000000000e+00
     1      1      4
 1  1  1     0.0000000000e+00
 1  1  2     0.0000000000e+00
 1  1  3    -3.9611116564e-03
 1  2  1     0.0000000000e+00
 1  2  2     0.0000000000e+00
 1  2  3    -6.9984323903e-13
 1  3  1     2.9476932692e-02
 1  3  2     5.2079400534e-12
 1  3  3     0.0000000000e+00
 2  1  1     0.0000000000e+00
 2  1  2     0.0000000000e+00
 2  1  3    -6.9984323903e-13
 2  2  1     0.0000000000e+00
 2  2  2     0.0000000000e+00
 2  2  3    -3.9611116544e-03
 2  3  1     5.2079400534e-12
 2  3  2     2.9476932676e-02
 2  3  3     0.0000000000e+00
 3  1  1     2.9476932692e-02
 3  1  2     5.2079400534e-12
 3  1  3     0.0000000000e+00
 3  2  1     5.2079400534e-12
 3  2  2     2.9476932676e-02
 3  2  3     0.0000000000e+00
 3  3  1     0.0000000000e+00
 3  3  2     0.0000000000e+00
 3  3  3    -1.1439682800e-01

    4
0.0000000000e+00 0.0000000000e+00 0.0000000000e+00
0.0000000000e+00 0.0000000000e+00 0.0000000000e+00
     1      1      5
 1  1  1    -1.8850955582e-01
 1  1  2     7.6577695367e-01
 1  1  3     9.5170357398e+00
 1  2  1     1.4426733504e+00
 1  2  2    -4.5364283564e-01
 1  2  3    -4.9617421751e+00
 1  3  1     9.8111545891e+00
 1  3  2    -5.9673209965e+00
 1  3  3     1.0346883194e+01
 2  1  1     1.4426733504e+00
 2  1  2    -4.5364283564e-01
 2  1  3    -4.9617421751e+00
 2  2  1     7.1877611435e-01
 2  2  2    -1.0719264935e+00
 2  2  3     3.7877093764e+00
 2  3  1    -5.9673209965e+00
 2  3  2     2.9206858200e+00
 2  3  3    -5.9737757965e+00
 3  1  1     9.8111545891e+00
 3  1  2    -5.9673209965e+00
 3  1  3     1.0346883194e+01
 3  2  1    -5.9673209965e+00
 3  2  2     2.9206858200e+00
 3  2  3    -5.9737757965e+00
 3  3  1     1.0294366022e+01
 3  3  2    -5.9434549928e+00
 3  3  3     1.0942555217e+01

    5
0.0000000000e+00 0.0000000000e+00 0.0000000000e+00
-3.2678004310e+00 0.0000000000e+00 0.0000000000e+00
     1      1      1
 1  1  1    -1.3950916239e-09
 1  1  2    -1.0068278439e+01
 1  1  3     0.0000000000e+00
 1  2  1     1.0860309989e+00
 1  2  2     2.5761164167e-10
 1  2  3     0.0000000000e+00
 1  3  1     0.0000000000e+00
 1  3  2     0.0000000000e+00
 1  3  3     5.6741684574e-10
 2  1  1     1.0860309989e+00
 2  1  2     2.5761164167e-10
 2  1  3     0.0000000000e+00
 2  2  1     2.5761164167e-10
 2  2  2     1.4580814948e+00
 2  2  3     0.0000000000e+00
 2  3  1     0.0000000000e+00
 2  3  2     0.0000000000e+00
 2  3  3     3.2115784724e+00
 3  1  1     0.0000000000e+00
 3  1  2     0.0000000000e+00
 3  1  3     5.6741684574e-10
 3  2  1     0.0000000000e+00
 3  2  2     0.0000000000e+00
 3  2  3     3.2115784724e+00
 3  3  1     6.0980334172e-11
 3  3  2     3.4514859744e-01
 3  3  3     0.0000000000e+00

    6
0.0000000000e+00 0.0000000000e+00 0.0000000000e+00
3.2678004310e+00 0.0000000000e+00 0.0000000000e+00
     1      1      3
 1  1  1     1.8850955711e-01
 1  1  2     7.6577695400e-01
 1  1  3    -9.5170357433e+00
 1  2  1     1.4426733503e+00
 1  2  2     4.5364283526e-01
 1  2  3    -4.9617421764e+00
 1  3  1    -9.8111545933e+00
 1  3  2    -5.9673209975e+00
 1  3  3    -1.0346883196e+01
 2  1  1     1.4426733503e+00
 2  1  2     4.5364283526e-01
 2  1  3    -4.9617421764e+00
 2  2  1    -7.1877611473e-01
 2  2  2    -1.0719264935e+00
 2  2  3    -3.7877093764e+00
 2  3  1    -5.9673209975e+00
 2  3  2    -2.9206858200e+00
 2  3  3    -5.9737757965e+00
 3  1  1    -9.8111545933e+00
 3  1  2    -5.9673209975e+00
 3  1  3    -1.0346883196e+01
 3  2  1    -5.9673209975e+00
 3  2  2    -2.9206858200e+00
 3  2  3    -5.9737757965e+00
 3  3  1    -1.0294366024e+01
 3  3  2    -5.9434549928e+00
 3  3  3    -1.0942555217e+01

    7
0.0000000000e+00 0.0000000000e+00 0.0000000000e+00
-3.2678004310e+00 0.0000000000e+00 0.0000000000e+00
     1      1      4
 1  1  1    -3.7256537794e-12
 1  1  2    -2.3665361192e-02
 1  1  3    -3.3036552486e-02
 1  2  1     1.2890832714e-03
 1  2  2     4.4067456819e-12
 1  2  3    -6.3112102971e-12
 1  3  1    -2.1812841153e-02
 1  3  2    -8.3866215767e-12
 1  3  3    -6.5834632001e-13
 2  1  1     1.2890832714e-03
 2  1  2     4.4067456819e-12
 2  1  3    -6.3112102971e-12
 2  2  1     4.4067456819e-12
 2  2  2     2.4942173768e-02
 2  2  3    -3.5721440555e-02
 2  3  1    -8.3866215767e-12
 2  3  2    -4.7468265200e-02
 2  3  3    -3.7262391567e-03
 3  1  1    -2.1812841153e-02
 3  1  2    -8.3866215767e-12
 3  1  3    -6.5834632001e-13
 3  2  1    -8.3866215767e-12
 3  2  2    -4.7468265200e-02
 3  2  3    -3.7262391567e-03
 3  3  1    -6.6651068720e-12
 3  3  2    -3.7724494624e-02
 3  3  3    -1.4962603373e-01

    8
0.0000000000e+00 0.0000000000e+00 0.0000000000e+00
3.2678004310e+00 0.0000000000e+00 0.0000000000e+00
     1      1      5
 1  1  1     1.8850955711e-01
 1  1  2     7.6577695400e-01
 1  1  3     9.5170357433e+00
 1  2  1     1.4426733503e+00
 1  2  2     4.5364283526e-01
 1  2  3     4.9617421764e+00
 1  3  1     9.8111545933e+00
 1  3  2     5.9673209975e+00
 1  3  3    -1.0346883196e+01
 2  1  1     1.4426733503e+00
 2  1  2     4.5364283526e-01
 2  1  3     4.9617421764e+00
 2  2  1    -7.1877611473e-01
 2  2  2    -1.0719264935e+00
 2  2  3     3.7877093764e+00
 2  3  1     5.9673209975e+00
 2  3  2     2.9206858200e+00
 2  3  3    -5.9737757965e+00
 3  1  1     9.8111545933e+00
 3  1  2     5.9673209975e+00
 3  1  3    -1.0346883196e+01
 3  2  1     5.9673209975e+00
 3  2  2     2.9206858200e+00
 3  2  3    -5.9737757965e+00
 3  3  1    -1.0294366024e+01
 3  3  2    -5.9434549928e+00
 3  3  3     1.0942555217e+01

    9
0.0000000000e+00 0.0000000000e+00 0.0000000000e+00
-1.6339002150e+00 2.8299981870e+00 0.0000000000e+00
     1      1      1
 1  1  1     7.6252929502e-01
 1  1  2     1.5262774922e+00
 1  1  3     0.0000000000e+00
 1  2  1    -4.0508772251e+00
 1  2  2    -2.9657953451e+00
 1  2  3     0.0000000000e+00
 1  3  1     0.0000000000e+00
 1  3  2     0.0000000000e+00
 1  3  3    -2.7813085444e+00
 2  1  1    -4.0508772251e+00
 2  1  2    -2.9657953451e+00
 2  1  3     0.0000000000e+00
 2  2  1     6.6941199874e+00
 2  2  2     2.7788209770e+00
 2  2  3     0.0000000000e+00
 2  3  1     0.0000000000e+00
 2  3  2     0.0000000000e+00
 2  3  3    -1.6057892362e+00
 3  1  1     0.0000000000e+00
 3  1  2     0.0000000000e+00
 3  1  3    -2.7813085444e+00
 3  2  1     0.0000000000e+00
 3  2  2     0.0000000000e+00
 3  2  3    -1.6057892362e+00
 3  3  1    -2.9890745357e-01
 3  3  2    -1.7257429872e-01
 3  3  3     0.0000000000e+00

   10
0.0000000000e+00 0.0000000000e+00 0.0000000000e+00
1.6339002150e+00 -2.8299981870e+00 0.0000000000e+00
     1      1      3
 1  1  1     5.8738840257e-10
 1  1  2     2.0107337038e+00
 1  1  3    -9.2304619685e-01
 1  2  1     6.5694091069e-01
 1  2  2    -2.4707339064e-10
 1  2  3    -2.1875813492e-09
 1  3  1     5.2454856334e-01
 1  3  2    -2.3421203608e-09
 1  3  3     2.1108768822e-09
 2  1  1     6.5694091069e-01
 2  1  2    -2.4707336891e-10
 2  1  3    -2.1875824509e-09
 2  2  1    -2.4707327100e-10
 2  2  2    -1.3984346227e+00
 2  2  3    -1.2381698917e+01
 2  3  1    -2.3421206921e-09
 2  3  2    -1.3256388969e+01
 2  3  3     1.1947551593e+01
 3  1  1     5.2454856334e-01
 3  1  2    -2.3421203608e-09
 3  1  3     2.1108768822e-09
 3  2  1    -2.3421216858e-09
 3  2  2    -1.3256388969e+01
 3  2  3     1.1947551593e+01
 3  3  1     2.1001628069e-09
 3  3  2     1.1886909986e+01
 3  3  3    -1.0942555217e+01

   11
0.0000000000e+00 0.0000000000e+00 0.0000000000e+00
-1.6339002150e+00 2.8299981870e+00 0.0000000000e+00
     1      1      4
 1  1  1    -1.1634905535e-02
 1  1  2    -5.4283325694e-03
 1  1  3    -3.5050218553e-02
 1  2  1    -1.7905554797e-02
 1  2  2    -1.1082029452e-02
 1  2  3    -1.1625906509e-03
 1  3  1    -4.1054409211e-02
 1  3  2    -1.1109124498e-02
 1  3  3     3.2270177714e-03
 2  1  1    -1.7905554797e-02
 2  1  2    -1.1082029452e-02
 2  1  3    -1.1625906509e-03
 2  2  1     1.0529153385e-02
 2  2  2     4.7899262684e-03
 2  2  3    -3.3707774490e-02
 2  3  1    -1.1109124498e-02
 2  3  2    -2.8226697156e-02
 2  3  3     1.8631195783e-03
 3  1  1    -4.1054409211e-02
 3  1  2    -1.1109124498e-02
 3  1  3     3.2270177714e-03
 3  2  1    -1.1109124498e-02
 3  2  2    -2.8226697156e-02
 3  2  3     1.8631195783e-03
 3  3  1     3.2670370701e-02
 3  3  2     1.8862247312e-02
 3  3  3    -1.4962603373e-01

   12
0.0000000000e+00 0.0000000000e+00 0.0000000000e+00
1.6339002150e+00 -2.8299981870e+00 0.0000000000e+00
     1      1      5
 1  1  1     5.8738840257e-10
 1  1  2     2.0107337038e+00
 1  1  3     9.2304619685e-01
 1  2  1     6.5694091069e-01
 1  2  2    -2.4707339064e-10
 1  2  3     2.1875813492e-09
 1  3  1    -5.2454856334e-01
 1  3  2     2.3421203608e-09
 1  3  3     2.1108768822e-09
 2  1  1     6.5694091069e-01
 2  1  2    -2.4707336891e-10
 2  1  3     2.1875824509e-09
 2  2  1    -2.4707327100e-10
 2  2  2    -1.3984346227e+00
 2  2  3     1.2381698917e+01
 2  3  1     2.3421206921e-09
 2  3  2     1.3256388969e+01
 2  3  3     1.1947551593e+01
 3  1  1    -5.2454856334e-01
 3  1  2     2.3421203608e-09
 3  1  3     2.1108768822e-09
 3  2  1     2.3421216858e-09
 3  2  2     1.3256388969e+01
 3  2  3     1.1947551593e+01
 3  3  1     2.1001628069e-09
 3  3  2     1.1886909986e+01
 3  3  3     1.0942555217e+01

   13
0.0000000000e+00 0.0000000000e+00 0.0000000000e+00
-1.6339002160e+00 -2.8299981870e+00 0.0000000000e+00
     1      1      1
 1  1  1    -7.6252929735e-01
 1  1  2     1.5262774943e+00
 1  1  3     0.0000000000e+00
 1  2  1    -4.0508772264e+00
 1  2  2     2.9657953460e+00
 1  2  3     0.0000000000e+00
 1  3  1     0.0000000000e+00
 1  3  2     0.0000000000e+00
 1  3  3     2.7813085438e+00
 2  1  1    -4.0508772264e+00
 2  1  2     2.9657953460e+00
 2  1  3     0.0000000000e+00
 2  2  1    -6.6941199864e+00
 2  2  2     2.7788209770e+00
 2  2  3     0.0000000000e+00
 2  3  1     0.0000000000e+00
 2  3  2     0.0000000000e+00
 2  3  3    -1.6057892362e+00
 3  1  1     0.0000000000e+00
 3  1  2     0.0000000000e+00
 3  1  3     2.7813085438e+00
 3  2  1     0.0000000000e+00
 3  2  2     0.0000000000e+00
 3  2  3    -1.6057892362e+00
 3  3  1     2.9890745351e-01
 3  3  2    -1.7257429872e-01
 3  3  3     0.0000000000e+00

   14
0.0000000000e+00 0.0000000000e+00 0.0000000000e+00
4.9017006460e+00 -2.8299981870e+00 0.0000000000e+00
     1      1      3
 1  1  1     0.0000000000e+00
 1  1  2     0.0000000000e+00
 1  1  3    -1.2941321910e+00
 1  2  1     0.0000000000e+00
 1  2  2     0.0000000000e+00
 1  2  3    -2.2864532556e-10
 1  3  1     5.8555166922e-01
 1  3  2     1.0345438663e-10
 1  3  3     0.0000000000e+00
 2  1  1     0.0000000000e+00
 2  1  2     0.0000000000e+00
 2  1  3    -2.2864532556e-10
 2  2  1     0.0000000000e+00
 2  2  2     0.0000000000e+00
 2  2  3    -1.2941321903e+00
 2  3  1     1.0345438663e-10
 2  3  2     5.8555166891e-01
 2  3  3     0.0000000000e+00
 3  1  1     5.8555166922e-01
 3  1  2     1.0345438663e-10
 3  1  3     0.0000000000e+00
 3  2  1     1.0345438663e-10
 3  2  2     5.8555166891e-01
 3  2  3     0.0000000000e+00
 3  3  1     0.0000000000e+00
 3  3  2     0.0000000000e+00
 3  3  3    -5.5918827636e-01

   15
0.0000000000e+00 0.0000000000e+00 0.0000000000e+00
-1.6339002160e+00 -2.8299981870e+00 0.0000000000e+00
     1      1      4
 1  1  1     1.1634905521e-02
 1  1  2    -5.4283325616e-03
 1  1  3    -3.5050218552e-02
 1  2  1    -1.7905554797e-02
 1  2  2     1.1082029454e-02
 1  2  3     1.1625906390e-03
 1  3  1    -4.1054409203e-02
 1  3  2     1.1109124488e-02
 1  3  3    -3.2270177708e-03
 2  1  1    -1.7905554797e-02
 2  1  2     1.1082029454e-02
 2  1  3     1.1625906390e-03
 2  2  1    -1.0529153383e-02
 2  2  2     4.7899262684e-03
 2  2  3    -3.3707774490e-02
 2  3  1     1.1109124488e-02
 2  3  2    -2.8226697156e-02
 2  3  3     1.8631195783e-03
 3  1  1    -4.1054409203e-02
 3  1  2     1.1109124488e-02
 3  1  3    -3.2270177708e-03
 3  2  1     1.1109124488e-02
 3  2  2    -2.8226697156e-02
 3  2  3     1.8631195783e-03
 3  3  1    -3.2670370695e-02
 3  3  2     1.8862247312e-02
 3  3  3    -1.4962603373e-01

   16
0.0000000000e+00 0.0000000000e+00 0.0000000000e+00
4.9017006460e+00 -2.8299981870e+00 0.0000000000e+00
     1      1      5
 1  1  1     0.0000000000e+00
 1  1  2     0.0000000000e+00
 1  1  3     1.2941321910e+00
 1  2  1     0.0000000000e+00
 1  2  2     0.0000000000e+00
 1  2  3     2.2864562821e-10
 1  3  1    -5.8555166922e-01
 1  3  2    -1.0345452358e-10
 1  3  3     0.0000000000e+00
 2  1  1     0.0000000000e+00
 2  1  2     0.0000000000e+00
 2  1  3     2.2864562821e-10
 2  2  1     0.0000000000e+00
 2  2  2     0.0000000000e+00
 2  2  3     1.2941321903e+00
 2  3  1    -1.0345452358e-10
 2  3  2    -5.8555166891e-01
 2  3  3     0.0000000000e+00
 3  1  1    -5.8555166922e-01
 3  1  2    -1.0345452358e-10
 3  1  3     0.0000000000e+00
 3  2  1    -1.0345452358e-10
 3  2  2    -5.8555166891e-01
 3  2  3     0.0000000000e+00
 3  3  1     0.0000000000e+00
 3  3  2     0.0000000000e+00
 3  3  3     5.5918827636e-01

   17
0.0000000000e+00 0.0000000000e+00 0.0000000000e+00
0.0000000000e+00 0.0000000000e+00 1.3109091162e+01
     1      1      6
 1  1  1     0.0000000000e+00
 1  1  2     0.0000000000e+00
 1  1  3     3.9611116564e-03
 1  2  1     0.0000000000e+00
 1  2  2     0.0000000000e+00
 1  2  3     6.9984416540e-13
 1  3  1    -2.9476932692e-02
 1  3  2    -5.2079469471e-12
 1  3  3     0.0000000000e+00
 2  1  1     0.0000000000e+00
 2  1  2     0.0000000000e+00
 2  1  3     6.9984416540e-13
 2  2  1     0.0000000000e+00
 2  2  2     0.0000000000e+00
 2  2  3     3.9611116544e-03
 2  3  1    -5.2079469471e-12
 2  3  2    -2.9476932676e-02
 2  3  3     0.0000000000e+00
 3  1  1    -2.9476932692e-02
 3  1  2    -5.2079469471e-12
 3  1  3     0.0000000000e+00
 3  2  1    -5.2079469471e-12
 3  2  2    -2.9476932676e-02
 3  2  3     0.0000000000e+00
 3  3  1     0.0000000000e+00
 3  3  2     0.0000000000e+00
 3  3  3     1.1439682800e-01

   18
0.0000000000e+00 0.0000000000e+00 0.0000000000e+00
-3.2678004310e+00 0.0000000000e+00 1.3109091162e+01
     1      1      6
 1  1  1    -3.7256537794e-12
 1  1  2    -2.3665361192e-02
 1  1  3     3.3036552486e-02
 1  2  1     1.2890832714e-03
 1  2  2     4.4067456819e-12
 1  2  3     6.3112102971e-12
 1  3  1     2.1812841153e-02
 1  3  2     8.3866215767e-12
 1  3  3    -6.5834632001e-13
 2  1  1     1.2890832714e-03
 2  1  2     4.4067456819e-12
 2  1  3     6.3112102971e-12
 2  2  1     4.4067456819e-12
 2  2  2     2.4942173768e-02
 2  2  3     3.5721440555e-02
 2  3  1     8.3866215767e-12
 2  3  2     4.7468265200e-02
 2  3  3    -3.7262391567e-03
 3  1  1     2.1812841153e-02
 3  1  2     8.3866215767e-12
 3  1  3    -6.5834632001e-13
 3  2  1     8.3866215767e-12
 3  2  2     4.7468265200e-02
 3  2  3    -3.7262391567e-03
 3  3  1    -6.6651068720e-12
 3  3  2    -3.7724494624e-02
 3  3  3     1.4962603373e-01

   19
0.0000000000e+00 0.0000000000e+00 0.0000000000e+00
-1.6339002150e+00 2.8299981870e+00 1.3109091162e+01
     1      1      6
 1  1  1    -1.1634905535e-02
 1  1  2    -5.4283325694e-03
 1  1  3     3.5050218553e-02
 1  2  1    -1.7905554797e-02
 1  2  2    -1.1082029452e-02
 1  2  3     1.1625906509e-03
 1  3  1     4.1054409211e-02
 1  3  2     1.1109124498e-02
 1  3  3     3.2270177714e-03
 2  1  1    -1.7905554797e-02
 2  1  2    -1.1082029452e-02
 2  1  3     1.1625906509e-03
 2  2  1     1.0529153385e-02
 2  2  2     4.7899262684e-03
 2  2  3     3.3707774490e-02
 2  3  1     1.1109124498e-02
 2  3  2     2.8226697156e-02
 2  3  3     1.8631195783e-03
 3  1  1     4.1054409211e-02
 3  1  2     1.1109124498e-02
 3  1  3     3.2270177714e-03
 3  2  1     1.1109124498e-02
 3  2  2     2.8226697156e-02
 3  2  3     1.8631195783e-03
 3  3  1     3.2670370701e-02
 3  3  2     1.8862247312e-02
 3  3  3     1.4962603373e-01

   20
0.0000000000e+00 0.0000000000e+00 0.0000000000e+00
-1.6339002160e+00 -2.8299981870e+00 1.3109091162e+01
     1      1      6
 1  1  1     1.1634905521e-02
 1  1  2    -5.4283325616e-03
 1  1  3     3.5050218552e-02
 1  2  1    -1.7905554797e-02
 1  2  2     1.1082029454e-02
 1  2  3    -1.1625906390e-03
 1  3  1     4.1054409203e-02
 1  3  2    -1.1109124488e-02
 1  3  3    -3.2270177708e-03
 2  1  1    -1.7905554797e-02
 2  1  2     1.1082029454e-02
 2  1  3    -1.1625906390e-03
 2  2  1    -1.0529153383e-02
 2  2  2     4.7899262684e-03
 2  2  3     3.3707774490e-02
 2  3  1    -1.1109124488e-02
 2  3  2     2.8226697156e-02
 2  3  3     1.8631195783e-03
 3  1  1     4.1054409203e-02
 3  1  2    -1.1109124488e-02
 3  1  3    -3.2270177708e-03
 3  2  1    -1.1109124488e-02
 3  2  2     2.8226697156e-02
 3  2  3     1.8631195783e-03
 3  3  1    -3.2670370695e-02
 3  3  2     1.8862247312e-02
 3  3  3     1.4962603373e-01

   21
0.0000000000e+00 0.0000000000e+00 0.0000000000e+00
0.0000000000e+00 0.0000000000e+00 0.0000000000e+00
     1      3      1
 1  1  1    -1.8850955582e-01
 1  1  2     1.4426733504e+00
 1  1  3    -9.8111545891e+00
 1  2  1     7.6577695367e-01
 1  2  2    -4.5364283564e-01
 1  2  3     5.9673209965e+00
 1  3  1    -9.5170357398e+00
 1  3  2     4.9617421751e+00
 1  3  3     1.0346883194e+01
 2  1  1     1.4426733504e+00
 2  1  2     7.1877611435e-01
 2  1  3     5.9673209965e+00
 2  2  1    -4.5364283564e-01
 2  2  2    -1.0719264935e+00
 2  2  3    -2.9206858200e+00
 2  3  1     4.9617421751e+00
 2  3  2    -3.7877093764e+00
 2  3  3    -5.9737757965e+00
 3  1  1    -9.8111545891e+00
 3  1  2     5.9673209965e+00
 3  1  3     1.0294366022e+01
 3  2  1     5.9673209965e+00
 3  2  2    -2.9206858200e+00
 3  2  3    -5.9434549928e+00
 3  3  1     1.0346883194e+01
 3  3  2    -5.9737757965e+00
 3  3  3    -1.0942555217e+01

   22
0.0000000000e+00 0.0000000000e+00 0.0000000000e+00
0.0000000000e+00 0.0000000000e+00 0.0000000000e+00
     1      3      3
 1  1  1     9.2170807625e-01
 1  1  2    -5.1177468460e-01
 1  1  3     1.2264437026e+01
 1  2  1    -5.1177468460e-01
 1  2  2     2.5977685029e-01
 1  2  3    -6.8403422463e+00
 1  3  1     1.2264437026e+01
 1  3  2    -6.8403422463e+00
 1  3  3    -1.2614323348e+01
 2  1  1    -4.7067383337e-01
 2  1  2     3.3096561281e-01
 2  1  3    -6.8403422463e+00
 2  2  1     3.3096561281e-01
 2  2  2    -2.1145680685e-01
 2  2  3     4.3658901483e+00
 2  3  1    -6.8403422463e+00
 2  3  2     4.3658901483e+00
 2  3  3     7.2828829793e+00
 3  1  1     1.0642209914e+01
 3  1  2    -5.9350413940e+00
 3  1  3    -1.1979083960e+01
 3  2  1    -5.9350413940e+00
 3  2  2     3.7890144184e+00
 3  2  3     6.9161273478e+00
 3  3  1    -1.1979083960e+01
 3  3  2     6.9161273478e+00
 3  3  3     1.4084137736e+01

   23
0.0000000000e+00 0.0000000000e+00 0.0000000000e+00
0.0000000000e+00 0.0000000000e+00 0.0000000000e+00
     1      3      5
 1  1  1    -3.8894399606e-01
 1  1  2     8.4015689823e-02
 1  1  3    -1.8756980363e-01
 1  2  1     8.4015689823e-02
 1  2  2     4.0925717830e-02
 1  2  3    -1.7120900762e-01
 1  3  1     1.8756980363e-01
 1  3  2     1.7120900762e-01
 1  3  3     8.2683138824e-01
 2  1  1    -6.3705481888e-02
 2  1  2    -2.1493485678e-01
 2  1  3    -1.7120900762e-01
 2  2  1    -2.1493485678e-01
 2  2  2     2.6463392826e-01
 2  2  3    -3.8526493662e-01
 2  3  1     1.7120900762e-01
 2  3  2     3.8526493662e-01
 2  3  3    -4.7737132450e-01
 3  1  1     0.0000000000e+00
 3  1  2     0.0000000000e+00
 3  1  3     5.9998187671e-01
 3  2  1     0.0000000000e+00
 3  2  2     0.0000000000e+00
 3  2  3    -3.4639969797e-01
 3  3  1     5.9998187671e-01
 3  3  2    -3.4639969797e-01
 3  3  3     0.0000000000e+00

   24
0.0000000000e+00 0.0000000000e+00 0.0000000000e+00
-3.2678004310e+00 0.0000000000e+00 0.0000000000e+00
     1      3      1
 1  1  1     1.4313594940e-10
 1  1  2     9.9876337197e-01
 1  1  3    -2.5707497342e-01
 1  2  1    -1.1873774909e+00
 1  2  2     8.9335919715e-02
 1  2  3     2.8926407092e-02
 1  3  1    -1.4412092786e+00
 1  3  2     3.8180883390e-01
 1  3  3     4.3811665259e-01
 2  1  1     9.9876337194e-01
 2  1  2     5.9108729818e-12
 2  1  3     2.7781697500e-01
 2  2  1    -8.9335919704e-02
 2  2  2     3.3455531968e-02
 2  2  3    -2.1270740627e-01
 2  3  1    -3.8180883436e-01
 2  3  2    -1.2858172863e+00
 2  3  3    -1.2345701583e+00
 3  1  1    -2.5707497353e-01
 3  1  2    -2.7781697508e-01
 3  1  3    -3.2821683367e-10
 3  2  1    -2.8926407167e-02
 3  2  2    -2.1270740627e-01
 3  2  3    -1.8577067727e+00
 3  3  1    -4.3811665302e-01
 3  3  2    -1.2345701583e+00
 3  3  3    -2.0531670516e+00

   25
0.0000000000e+00 0.0000000000e+00 0.0000000000e+00
3.2678004310e+00 0.0000000000e+00 0.0000000000e+00
     1      3      3
 1  1  1    -1.7672341925e-10
 1  1  2    -1.0249001954e-01
 1  1  3    -6.0991193487e-01
 1  2  1    -1.0249001944e-01
 1  2  2     7.1617530642e-12
 1  2  3     1.3052809584e-01
 1  3  1    -6.0991193473e-01
 1  3  2    -1.3052809571e-01
 1  3  3     3.4052440217e-11
 2  1  1    -7.9527424174e-01
 2  1  2    -2.9012967561e-01
 2  1  3    -5.4493646234e-01
 2  2  1     2.9012967562e-01
 2  2  2     4.0535511306e-02
 2  2  3     3.6357508885e-01
 2  3  1     5.4493646247e-01
 2  3  2     3.6357508885e-01
 2  3  3     1.9273675915e-01
 3  1  1     3.1515019918e-02
 3  1  2    -4.3965865783e-01
 3  1  3    -5.9380065366e-01
 3  2  1     4.3965865775e-01
 3  2  2    -2.2967109613e-01
 3  2  3     4.5320244197e-01
 3  3  1     5.9380065382e-01
 3  3  2     4.5320244197e-01
 3  3  3     5.7737585504e-01

   26
0.0000000000e+00 0.0000000000e+00 0.0000000000e+00
3.2678004310e+00 0.0000000000e+00 0.0000000000e+00
     1      3      5
 1  1  1    -9.4961348644e-11
 1  1  2    -8.5806066406e-02
 1  1  3    -4.2453345823e-01
 1  2  1    -8.5806066112e-02
 1  2  2     1.4756722820e-10
 1  2  3     2.6737240479e-01
 1  3  1     4.2453345852e-01
 1  3  2     2.6737240488e-01
 1  3  3     1.1635914235e-11
 2  1  1    -3.6586895475e-01
 2  1  2    -8.2970794439e-01
 2  1  3     5.6875551477e-01
 2  2  1     8.2970794468e-01
 2  2  2     8.3523028420e-01
 2  2  3    -2.7005549592e-01
 2  3  1     5.6875551487e-01
 2  3  2     2.7005549592e-01
 2  3  3     6.5859256636e-02
 3  1  1     3.6790094570e-11
 3  1  2     1.0411593928e-01
 3  1  3     1.7286264761e-01
 3  2  1     1.0411593928e-01
 3  2  2     0.0000000000e+00
 3  2  3    -1.5320361271e-02
 3  3  1    -1.7286264761e-01
 3  3  2    -1.5320361271e-02
 3  3  3     0.0000000000e+00

   27
0.0000000000e+00 0.0000000000e+00 0.0000000000e+00
-1.6339002150e+00 2.8299981870e+00 0.0000000000e+00
     1      3      1
 1  1  1    -1.9713246391e-01
 1  1  2    -1.3075436453e-01
 1  1  3    -3.5662307886e-01
 1  2  1     8.8494889059e-01
 1  2  2    -6.5212736915e-01
 1  2  3     2.2034284958e-01
 1  3  1    -1.3246652848e+00
 1  3  2    -3.1452212825e-01
 1  3  3     1.2882274466e+00
 2  1  1    -2.8548871646e-01
 2  1  2     1.1964581940e+00
 2  1  3    -2.8547718336e-02
 2  2  1    -7.4146328886e-01
 2  2  2    -3.0798791122e-01
 2  2  3    -1.1315930091e-01
 2  3  1     4.4909554001e-01
 2  3  2    -1.4023612799e+00
 2  3  3     2.3786492810e-01
 3  1  1    -9.0975517443e-02
 3  1  2     6.6971158443e-02
 3  1  3     1.6088212586e+00
 3  2  1    -1.8191940947e-01
 3  2  2    -3.7880686224e-01
 3  2  3     9.2885338637e-01
 3  3  1     8.5011079389e-01
 3  3  2     9.9670523019e-01
 3  3  3    -2.0531670516e+00

   28
0.0000000000e+00 0.0000000000e+00 0.0000000000e+00
1.6339002150e+00 -2.8299981870e+00 0.0000000000e+00
     1      3      3
 1  1  1     1.9023281734e-01
 1  1  2    -5.9031083178e-01
 1  1  3     2.9964741976e-01
 1  2  1    -8.7791492649e-02
 1  2  2     4.6339009628e-01
 1  2  3    -1.9802124504e-02
 1  3  1    -5.9240753301e-02
 1  3  2     8.6286661705e-01
 1  3  3    -1.6691492973e-01
 2  1  1     7.3409488018e-03
 2  1  2    -2.8164347717e-01
 2  1  3     6.5566243368e-01
 2  2  1     8.4861984444e-03
 2  2  2     3.7002841616e-01
 2  2  3    -5.4598426512e-01
 2  3  1     1.8740205887e-01
 2  3  2    -1.8709609217e-01
 2  3  3    -9.6368379575e-02
 3  1  1    -1.6437456725e-01
 3  1  2     3.2656175195e-01
 3  1  3    -6.8938515472e-01
 3  2  1    -5.5275556362e-01
 3  2  2    -3.3781509107e-02
 3  2  3     2.8764522981e-01
 3  3  1    -9.5584501163e-02
 3  3  2    -7.4084767177e-01
 3  3  3     5.7737585504e-01

   29
0.0000000000e+00 0.0000000000e+00 0.0000000000e+00
1.6339002150e+00 -2.8299981870e+00 0.0000000000e+00
     1      3      5
 1  1  1    -4.2612991481e-01
 1  1  2    -1.1904118893e+00
 1  1  3    -6.7072899626e-01
 1  2  1     2.4668442658e-01
 1  2  2     1.9651079250e-02
 1  2  3     4.2661445473e-01
 1  3  1    -5.3379023018e-02
 1  3  2     2.9283261521e-01
 1  3  3    -5.7035789342e-02
 2  1  1    -3.3183228717e-01
 2  1  2    -6.3774446905e-01
 2  1  3     1.2523134474e-01
 2  2  1     1.9196347549e-01
 2  2  2     9.7151622096e-02
 2  2  3    -2.3859958074e-02
 2  3  1    -8.5504947728e-03
 2  3  2     7.4796797712e-01
 2  3  3    -3.2929628318e-02
 3  1  1    -9.0167048365e-02
 3  1  2     5.2057969658e-02
 3  1  3     9.9699145839e-02
 3  2  1     5.2057969658e-02
 3  2  2     9.0167048336e-02
 3  2  3    -1.4204326352e-01
 3  3  1    -7.3163501717e-02
 3  3  2     1.5736362479e-01
 3  3  3     0.0000000000e+00

   30
0.0000000000e+00 0.0000000000e+00 0.0000000000e+00
-1.6339002160e+00 -2.8299981870e+00 0.0000000000e+00
     1      3      1
 1  1  1     1.6790125610e-01
 1  1  2     1.9527884408e-01
 1  1  3    -5.1336228332e-01
 1  2  1     5.0085647423e-02
 1  2  2     1.0757019607e-01
 1  2  3    -5.2118365404e-02
 1  3  1     2.7425393180e-01
 1  3  2     3.0019414631e-01
 1  3  3    -1.7296287066e-01
 2  1  1     7.7992640867e-02
 2  1  2     1.5590652657e-01
 2  1  3    -5.2118365404e-02
 2  2  1    -9.5575466811e-02
 2  2  2    -2.3703615778e-01
 2  2  3    -5.7354338749e-01
 2  3  1     3.0019414631e-01
 2  3  2     6.2088827369e-01
 2  3  3     9.9860159918e-02
 3  1  1    -2.0718248489e-01
 3  1  2     7.4488895112e-02
 3  1  3     8.6550040082e-01
 3  2  1     7.4488895112e-02
 3  2  2    -1.2117011752e-01
 3  2  3    -4.9969688932e-01
 3  3  1     1.0007350832e-01
 3  3  2    -5.7777466960e-02
 3  3  3    -2.3666047119e-01

   31
0.0000000000e+00 0.0000000000e+00 0.0000000000e+00
1.6339002160e+00 2.8299981870e+00 0.0000000000e+00
     1      3      3
 1  1  1    -1.1262326091e-01
 1  1  2     1.9099668047e-01
 1  1  3     2.9246937373e-01
 1  2  1     5.7307335693e-03
 1  2  2     3.0848581947e-01
 1  2  3    -4.4364329761e-02
 1  3  1     9.0161111151e-02
 1  3  2    -8.4203713317e-02
 1  3  3     1.4999435698e-01
 2  1  1    -2.0130438449e-01
 2  1  2    -5.0109523758e-02
 2  1  3    -4.4364329761e-02
 2  2  1    -3.7099955652e-01
 2  2  2     8.8223083405e-02
 2  2  3     2.4124185809e-01
 2  3  1    -8.4203713317e-02
 2  3  2    -7.0689619403e-03
 2  3  3    -8.6599282365e-02
 3  1  1     5.7347158347e-02
 3  1  2     1.7457749393e-02
 3  1  3    -4.0370895190e-01
 3  2  1     1.7457749393e-02
 3  2  2     7.7505630913e-02
 3  2  3     2.3308147202e-01
 3  3  1     1.4911265802e-01
 3  3  2    -8.6090233231e-02
 3  3  3     3.9676425494e-01

   32
0.0000000000e+00 0.0000000000e+00 0.0000000000e+00
1.6339002160e+00 2.8299981870e+00 0.0000000000e+00
     1      3      5
 1  1  1     4.8616844145e-02
 1  1  2    -3.3655258365e-01
 1  1  3     5.1090225310e-02
 1  2  1    -8.5109347131e-02
 1  2  2    -2.2134200414e-01
 1  2  3     1.0773217086e-01
 1  3  1    -1.8308599041e-01
 1  3  2     1.2404786612e-01
 1  3  3     0.0000000000e+00
 2  1  1    -5.1086927026e-03
 2  1  2    -8.2776806114e-02
 2  1  3     1.0773217086e-01
 2  2  1     3.5273565451e-01
 2  2  2     1.0483161032e-01
 2  2  3     1.7548862087e-01
 2  3  1     1.2404786612e-01
 2  3  2    -3.9847852593e-02
 2  3  3     0.0000000000e+00
 3  1  1    -1.4385937997e-01
 3  1  2     1.1790409903e-01
 3  1  3     2.5774895656e-02
 3  2  1     1.1790409903e-01
 3  2  2    -7.7154533457e-03