  724

    1
0.0000000000e+00 0.0000000000e+00 0.0000000000e+00
0.0000000000e+00 0.0000000000e+00 0.0000000000e+00
     1      1      1
 1  1  1     0.0000000000e+00
 1  1  2    -1.4477438979e+02
 1  1  3    -1.7277281149e-01
 1  2  1    -1.4477438979e+02
 1  2  2     0.0000000000e+00
 1  2  3     0.0000000000e+00
 1  3  1    -1.7277281149e-01
 1  3  2     0.0000000000e+00
 1  3  3     0.0000000000e+00
 2  1  1    -1.4477438979e+02
 2  1  2     0.0000000000e+00
 2  1  3     0.0000000000e+00
 2  2  1     0.0000000000e+00
 2  2  2     1.4477438979e+02
 2  2  3    -1.7277281149e-01
 2  3  1     0.0000000000e+00
 2  3  2    -1.7277281149e-01
 2  3  3     0.0000000000e+00
 3  1  1    -1.7277281149e-01
 3  1  2     0.0000000000e+00
 3  1  3     0.0000000000e+00
 3  2  1     0.0000000000e+00
 3  2  2    -1.7277281149e-01
 3  2  3     0.0000000000e+00
 3  3  1     0.0000000000e+00
 3  3  2     0.0000000000e+00
 3  3  3     1.1197148825e+00

    2
0.0000000000e+00 0.0000000000e+00 0.0000000000e+00
0.0000000000e+00 0.0000000000e+00 0.0000000000e+00
     1      1      2
 1  1  1     0.0000000000e+00
 1  1  2     1.4783838211e-02
 1  1  3     2.1287318983e-01
 1  2  1     1.4783838211e-02
 1  2  2     0.0000000000e+00
 1  2  3     0.0000000000e+00
 1  3  1     7.9252381945e-02
 1  3  2     0.0000000000e+00
 1  3  3     0.0000000000e+00
 2  1  1     1.4783838211e-02
 2  1  2     0.0000000000e+00
 2  1  3     0.0000000000e+00
 2  2  1     0.0000000000e+00
 2  2  2    -1.4783838211e-02
 2  2  3     2.1287318983e-01
 2  3  1     0.0000000000e+00
 2  3  2     7.9252381945e-02
 2  3  3     0.0000000000e+00
 3  1  1     7.9252381945e-02
 3  1  2     0.0000000000e+00
 3  1  3     0.0000000000e+00
 3  2  1     0.0000000000e+00
 3  2  2     7.9252381945e-02
 3  2  3     0.0000000000e+00
 3  3  1     0.0000000000e+00
 3  3  2     0.0000000000e+00
 3  3  3    -4.8619767778e-01

    3
0.0000000000e+00 0.0000000000e+00 0.0000000000e+00
0.0000000000e+00 0.0000000000e+00 0.0000000000e+00
     1      1      3
 1  1  1     0.0000000000e+00
 1  1  2     5.8364278216e+00
 1  1  3    -3.0979202302e-02
 1  2  1     8.9321453412e+00
 1  2  2     0.0000000000e+00
 1  2  3     0.0000000000e+00
 1  3  1    -5.2872666099e-02
 1  3  2     0.0000000000e+00
 1  3  3     0.0000000000e+00
 2  1  1     8.9321453412e+00
 2  1  2     0.0000000000e+00
 2  1  3     0.0000000000e+00
 2  2  1     0.0000000000e+00
 2  2  2    -1.6839921418e+02
 2  2  3    -7.7287762680e-02
 2  3  1     0.0000000000e+00
 2  3  2     9.3095681187e-02
 2  3  3     1.1297070956e+01
 3  1  1    -5.2872666099e-02
 3  1  2     0.0000000000e+00
 3  1  3     0.0000000000e+00
 3  2  1     0.0000000000e+00
 3  2  2     9.3095681187e-02
 3  2  3     1.1297070956e+01
 3  3  1     0.0000000000e+00
 3  3  2     9.9713888971e+00
 3  3  3     1.2492461479e-01

    4
0.0000000000e+00 0.0000000000e+00 0.0000000000e+00
0.0000000000e+00 0.0000000000e+00 0.0000000000e+00
     1      1      4
 1  1  1     7.9604065952e-03
 1  1  2     1.3209285405e-03
 1  1  3     3.9963635254e-02
 1  2  1    -5.4428469812e-03
 1  2  2    -1.2515987531e-03
 1  2  3    -1.2962225801e-02
 1  3  1    -5.4194539149e-02
 1  3  2    -2.3962771814e-02
 1  3  3    -8.9418203152e-02
 2  1  1    -5.4428469812e-03
 2  1  2    -1.2515987531e-03
 2  1  3    -1.2962225801e-02
 2  2  1     1.0463604101e-02
 2  2  2     9.3161789947e-03
 2  2  3     5.4931124365e-02
 2  3  1    -2.3962771814e-02
 2  3  2    -2.6524713634e-02
 2  3  3    -5.1625623660e-02
 3  1  1    -5.4194539149e-02
 3  1  2    -2.3962771814e-02
 3  1  3    -8.9418203152e-02
 3  2  1    -2.3962771814e-02
 3  2  2    -2.6524713634e-02
 3  2  3    -5.1625623660e-02
 3  3  1    -2.2980394612e-01
 3  3  2    -1.3267737015e-01
 3  3  3    -2.5085444974e-01

    5
0.0000000000e+00 0.0000000000e+00 0.0000000000e+00
2.4904256582e+00 0.0000000000e+00 0.0000000000e+00
     1      1      1
 1  1  1    -1.0906620036e+01
 1  1  2    -1.2730266025e+00
 1  1  3    -3.4737226191e-02
 1  2  1     1.1687202128e+00
 1  2  2     2.3508778888e+00
 1  2  3     2.3292331971e-02
 1  3  1     4.2450194264e-02
 1  3  2     6.3077778216e-02
 1  3  3     2.8345130115e+00
 2  1  1     1.1687202128e+00
 2  1  2     2.3508778888e+00
 2  1  3     2.3292331971e-02
 2  2  1     2.3530394971e+00
 2  2  2     1.1189945566e+00
 2  2  3     2.8963314219e-02
 2  3  1     5.4534085641e-03
 2  3  2     1.0275026708e-02
 2  3  3     3.8298352233e-01
 3  1  1     4.2450194264e-02
 3  1  2     6.3077778216e-02
 3  1  3     2.8345130115e+00
 3  2  1     5.4534085641e-03
 3  2  2     1.0275026708e-02
 3  2  3     3.8298352233e-01
 3  3  1    -4.2701314759e-01
 3  3  2     5.8567685450e-01
 3  3  3    -2.1105722598e-02

    6
0.0000000000e+00 0.0000000000e+00 0.0000000000e+00
2.4904256582e+00 0.0000000000e+00 0.0000000000e+00
     1      1      3
 1  1  1    -1.8940850030e+00
 1  1  2     1.3944208829e+00
 1  1  3    -2.0163088160e-02
 1  2  1    -8.5364163894e-01
 1  2  2    -1.9292811698e+00
 1  2  3    -3.3349742185e-02
 1  3  1     4.8947092143e-03
 1  3  2     1.0703090945e-02
 1  3  3     9.1921289154e-02
 2  1  1    -8.5364163894e-01
 2  1  2    -1.9292811698e+00
 2  1  3    -3.3349742185e-02
 2  2  1     1.9644773366e+00
 2  2  2    -1.3537798501e+00
 2  2  3     1.8345877096e-02
 2  3  1     1.0703090945e-02
 2  3  2    -7.4641556623e-03
 2  3  3     5.3070781037e-02
 3  1  1     4.8947092143e-03
 3  1  2     1.0703090945e-02
 3  1  3     9.1921289154e-02
 3  2  1     1.0703090945e-02
 3  2  2    -7.4641556623e-03
 3  2  3     5.3070781037e-02
 3  3  1    -4.2005965883e-02
 3  3  2    -2.4252155710e-02
 3  3  3    -4.3030683896e-02

    7
0.0000000000e+00 0.0000000000e+00 0.0000000000e+00
-2.4904256582e+00 0.0000000000e+00 0.0000000000e+00
     1      1      1
 1  1  1     1.0906620036e+01
 1  1  2    -1.2730266025e+00
 1  1  3    -3.4737226191e-02
 1  2  1     1.1687202128e+00
 1  2  2    -2.3508778888e+00
 1  2  3    -2.3292331971e-02
 1  3  1     4.2450194264e-02
 1  3  2    -6.3077778216e-02
 1  3  3    -2.8345130115e+00
 2  1  1     1.1687202128e+00
 2  1  2    -2.3508778888e+00
 2  1  3    -2.3292331971e-02
 2  2  1    -2.3530394971e+00
 2  2  2     1.1189945566e+00
 2  2  3     2.8963314219e-02
 2  3  1    -5.4534085641e-03
 2  3  2     1.0275026708e-02
 2  3  3     3.8298352233e-01
 3  1  1     4.2450194264e-02
 3  1  2    -6.3077778216e-02
 3  1  3    -2.8345130115e+00
 3  2  1    -5.4534085641e-03
 3  2  2     1.0275026708e-02
 3  2  3     3.8298352233e-01
 3  3  1     4.2701314759e-01
 3  3  2     5.8567685450e-01
 3  3  3    -2.1105722598e-02

    8
0.0000000000e+00 0.0000000000e+00 0.0000000000e+00
-2.4904256582e+00 0.0000000000e+00 0.0000000000e+00
     1      1      3
 1  1  1     1.8940850030e+00
 1  1  2     1.3944208829e+00
 1  1  3    -2.0163088160e-02
 1  2  1    -8.5364163894e-01
 1  2  2     1.9292811698e+00
 1  2  3     3.3349742185e-02
 1  3  1     4.8947092143e-03
 1  3  2    -1.0703090945e-02
 1  3  3    -9.1921289154e-02
 2  1  1    -8.5364163894e-01
 2  1  2     1.9292811698e+00
 2  1  3     3.3349742185e-02
 2  2  1    -1.9644773366e+00
 2  2  2    -1.3537798501e+00
 2  2  3     1.8345877096e-02
 2  3  1    -1.0703090945e-02
 2  3  2    -7.4641556623e-03
 2  3  3     5.3070781037e-02
 3  1  1     4.8947092143e-03
 3  1  2    -1.0703090945e-02
 3  1  3    -9.1921289154e-02
 3  2  1    -1.0703090945e-02
 3  2  2    -7.4641556623e-03
 3  2  3     5.3070781037e-02
 3  3  1     4.2005965883e-02
 3  3  2    -2.4252155710e-02
 3  3  3    -4.3030683896e-02

    9
0.0000000000e+00 0.0000000000e+00 0.0000000000e+00
-2.4904256582e+00 0.0000000000e+00 0.0000000000e+00
     1      1      4
 1  1  1    -7.9604065952e-03
 1  1  2     1.3209285405e-03
 1  1  3     3.9963635254e-02
 1  2  1    -5.4428469812e-03
 1  2  2     1.2515987531e-03
 1  2  3     1.2962225801e-02
 1  3  1    -5.4194539149e-02
 1  3  2     2.3962771814e-02
 1  3  3     8.9418203152e-02
 2  1  1    -5.4428469812e-03
 2  1  2     1.2515987531e-03
 2  1  3     1.2962225801e-02
 2  2  1    -1.0463604101e-02
 2  2  2     9.3161789947e-03
 2  2  3     5.4931124365e-02
 2  3  1     2.3962771814e-02
 2  3  2    -2.6524713634e-02
 2  3  3    -5.1625623660e-02
 3  1  1    -5.4194539149e-02
 3  1  2     2.3962771814e-02
 3  1  3     8.9418203152e-02
 3  2  1     2.3962771814e-02
 3  2  2    -2.6524713634e-02
 3  2  3    -5.1625623660e-02
 3  3  1     2.2980394612e-01
 3  3  2    -1.3267737015e-01
 3  3  3    -2.5085444974e-01

   10
0.0000000000e+00 0.0000000000e+00 0.0000000000e+00
-1.2452128291e+00 2.1567718862e+00 0.0000000000e+00
     1      1      1
 1  1  1    -2.2394813607e+00
 1  1  2    -1.2349229800e+00
 1  1  3     3.3209930317e-02
 1  2  1    -2.4576683953e+00
 1  2  2     4.5361333275e+00
 1  2  3     1.5936977130e-02
 1  3  1     4.7993692948e-02
 1  3  2    -2.2528681063e-03
 1  3  3    -1.7489299653e+00
 2  1  1    -2.4576683953e+00
 2  1  2     4.5361333275e+00
 2  1  3     1.5936977130e-02
 2  2  1     6.6496672950e+00
 2  2  2    -6.0956790371e+00
 2  2  3    -3.8983842289e-02
 2  3  1    -5.9877237758e-02
 2  3  2     4.7315280233e-03
 2  3  3     2.2632685141e+00
 3  1  1     4.7993692948e-02
 3  1  2    -2.2528681063e-03
 3  1  3    -1.7489299653e+00
 3  2  1    -5.9877237758e-02
 3  2  2     4.7315280233e-03
 3  2  3     2.2632685141e+00
 3  3  1    -2.9370446061e-01
 3  3  2    -6.6264266082e-01
 3  3  3    -2.1105722598e-02

   11
0.0000000000e+00 0.0000000000e+00 0.0000000000e+00
1.2452128291e+00 2.1567718862e+00 0.0000000000e+00
     1      1      1
 1  1  1     2.2394813607e+00
 1  1  2    -1.2349229800e+00
 1  1  3     3.3209930317e-02
 1  2  1    -2.4576683953e+00
 1  2  2    -4.5361333275e+00
 1  2  3    -1.5936977130e-02
 1  3  1     4.7993692948e-02
 1  3  2     2.2528681063e-03
 1  3  3     1.7489299653e+00
 2  1  1    -2.4576683953e+00
 2  1  2    -4.5361333275e+00
 2  1  3    -1.5936977130e-02
 2  2  1    -6.6496672950e+00
 2  2  2    -6.0956790371e+00
 2  2  3    -3.8983842289e-02
 2  3  1     5.9877237758e-02
 2  3  2     4.7315280233e-03
 2  3  3     2.2632685141e+00
 3  1  1     4.7993692948e-02
 3  1  2     2.2528681063e-03
 3  1  3     1.7489299653e+00
 3  2  1     5.9877237758e-02
 3  2  2     4.7315280233e-03
 3  2  3     2.2632685141e+00
 3  3  1     2.9370446061e-01
 3  3  2    -6.6264266082e-01
 3  3  3    -2.1105722598e-02

   12
0.0000000000e+00 0.0000000000e+00 0.0000000000e+00
0.0000000000e+00 -4.3135437724e+00 0.0000000000e+00
     1      1      3
 1  1  1     0.0000000000e+00
 1  1  2    -2.0081536745e+00
 1  1  3     3.7600359724e-02
 1  2  1     2.4879713693e+00
 1  2  2     0.0000000000e+00
 1  2  3     0.0000000000e+00
 1  3  1    -1.3643588101e-02
 1  3  2     0.0000000000e+00
 1  3  3     0.0000000000e+00
 2  1  1     2.4879713693e+00
 2  1  2     0.0000000000e+00
 2  1  3     0.0000000000e+00
 2  2  1     0.0000000000e+00
 2  2  2     1.9268716089e+00
 2  2  3    -3.9417570788e-02
 2  3  1     0.0000000000e+00
 2  3  2     1.1074141653e-02
 2  3  3    -1.0614156207e-01
 3  1  1    -1.3643588101e-02
 3  1  2     0.0000000000e+00
 3  1  3     0.0000000000e+00
 3  2  1     0.0000000000e+00
 3  2  2     1.1074141653e-02
 3  2  3    -1.0614156207e-01
 3  3  1     0.0000000000e+00
 3  3  2     4.8504311421e-02
 3  3  3    -4.3030683896e-02

   13
0.0000000000e+00 0.0000000000e+00 0.0000000000e+00
1.2452128291e+00 -2.1567718862e+00 0.0000000000e+00
     1      1      1
 1  1  1     3.2496008628e-01
 1  1  2     2.4670140323e+00
 1  1  3    -7.1335720837e-03
 1  2  1     1.2480126324e+00
 1  2  2    -6.5840502667e+00
 1  2  3     3.9229309100e-02
 1  3  1    -1.1356055754e-02
 1  3  2    -2.5611644368e-02
 1  3  3     1.0855830462e+00
 2  1  1     1.2480126324e+00
 2  1  2    -6.5840502667e+00
 2  1  3     3.9229309100e-02
 2  2  1    -4.4683546910e+00
 2  2  2     5.0176200306e+00
 2  2  3     1.3596601114e-03
 2  3  1     3.2012725284e-02
 2  3  2     6.4081276726e-02
 2  3  3    -2.6462520365e+00
 3  1  1    -1.1356055754e-02
 3  1  2    -2.5611644368e-02
 3  1  3     1.0855830462e+00
 3  2  1     3.2012725284e-02
 3  2  2     6.4081276726e-02
 3  2  3    -2.6462520365e+00
 3  3  1    -7.2071760820e-01
 3  3  2     7.6965806315e-02
 3  3  3    -2.1105722598e-02

   14
0.0000000000e+00 0.0000000000e+00 0.0000000000e+00
1.2452128291e+00 -2.1567718862e+00 0.0000000000e+00
     1      1      3
 1  1  1    -1.0424714202e+02
 1  1  2     6.9119260846e+01
 1  1  3    -6.5710622586e-02
 1  2  1     6.7571402086e+01
 1  2  2    -3.3855390667e+01
 1  2  3     2.0052194850e-02
 1  3  1     5.6603594366e-02
 1  3  2    -6.3206148449e-02
 1  3  3     9.7835504358e+00
 2  1  1     6.7571402086e+01
 2  1  2    -3.3855390667e+01
 2  1  3     2.0052194850e-02
 2  2  1    -3.6536360682e+01
 2  2  2     1.2162132334e+01
 2  2  3    -4.2556342396e-02
 2  3  1    -6.3206148449e-02
 2  3  2    -1.6380579277e-02
 2  3  3    -5.6485354778e+00
 3  1  1     5.6603594366e-02
 3  1  2    -6.3206148449e-02
 3  1  3     9.7835504358e+00
 3  2  1    -6.3206148449e-02
 3  2  2    -1.6380579277e-02
 3  2  3    -5.6485354778e+00
 3  3  1     8.6354760959e+00
 3  3  2    -4.9856944485e+00
 3  3  3     1.2492461479e-01

   15
0.0000000000e+00 0.0000000000e+00 0.0000000000e+00
-1.2452128291e+00 -2.1567718862e+00 0.0000000000e+00
     1      1      1
 1  1  1    -3.2496008628e-01
 1  1  2     2.4670140323e+00
 1  1  3    -7.1335720837e-03
 1  2  1     1.2480126324e+00
 1  2  2     6.5840502667e+00
 1  2  3    -3.9229309100e-02
 1  3  1    -1.1356055754e-02
 1  3  2     2.5611644368e-02
 1  3  3    -1.0855830462e+00
 2  1  1     1.2480126324e+00
 2  1  2     6.5840502667e+00
 2  1  3    -3.9229309100e-02
 2  2  1     4.4683546910e+00
 2  2  2     5.0176200306e+00
 2  2  3     1.3596601114e-03
 2  3  1    -3.2012725284e-02
 2  3  2     6.4081276726e-02
 2  3  3    -2.6462520365e+00
 3  1  1    -1.1356055754e-02
 3  1  2     2.5611644368e-02
 3  1  3    -1.0855830462e+00
 3  2  1    -3.2012725284e-02
 3  2  2     6.4081276726e-02
 3  2  3    -2.6462520365e+00
 3  3  1     7.2071760820e-01
 3  3  2     7.6965806315e-02
 3  3  3    -2.1105722598e-02

   16
0.0000000000e+00 0.0000000000e+00 0.0000000000e+00
-1.2452128291e+00 -2.1567718862e+00 0.0000000000e+00
     1      1      3
 1  1  1     1.0424714202e+02
 1  1  2     6.9119260846e+01
 1  1  3    -6.5710622586e-02
 1  2  1     6.7571402086e+01
 1  2  2     3.3855390667e+01
 1  2  3    -2.0052194850e-02
 1  3  1     5.6603594366e-02
 1  3  2     6.3206148449e-02
 1  3  3    -9.7835504358e+00
 2  1  1     6.7571402086e+01
 2  1  2     3.3855390667e+01
 2  1  3    -2.0052194850e-02
 2  2  1     3.6536360682e+01
 2  2  2     1.2162132334e+01
 2  2  3    -4.2556342396e-02
 2  3  1     6.3206148449e-02
 2  3  2    -1.6380579277e-02
 2  3  3    -5.6485354778e+00
 3  1  1     5.6603594366e-02
 3  1  2     6.3206148449e-02
 3  1  3    -9.7835504358e+00
 3  2  1     6.3206148449e-02
 3  2  2    -1.6380579277e-02
 3  2  3    -5.6485354778e+00
 3  3  1    -8.6354760959e+00
 3  3  2    -4.9856944485e+00
 3  3  3     1.2492461479e-01

   17
0.0000000000e+00 0.0000000000e+00 0.0000000000e+00
-1.2452128291e+00 -2.1567718862e+00 0.0000000000e+00
     1      1      4
 1  1  1     0.0000000000e+00
 1  1  2    -1.6802565394e-02
 1  1  3     6.2414868921e-02
 1  2  1    -3.2750143501e-03
 1  2  2     0.0000000000e+00
 1  2  3     0.0000000000e+00
 1  3  1    -1.2689800876e-02
 1  3  2     0.0000000000e+00
 1  3  3     0.0000000000e+00
 2  1  1    -3.2750143501e-03
 2  1  2     0.0000000000e+00
 2  1  3     0.0000000000e+00
 2  2  1     0.0000000000e+00
 2  2  2    -4.4716496770e-03
 2  2  3     3.2479890699e-02
 2  3  1     0.0000000000e+00
 2  3  2    -6.8029451906e-02
 2  3  3     1.0325124732e-01
 3  1  1    -1.2689800876e-02
 3  1  2     0.0000000000e+00
 3  1  3     0.0000000000e+00
 3  2  1     0.0000000000e+00
 3  2  2    -6.8029451906e-02
 3  2  3     1.0325124732e-01
 3  3  1     0.0000000000e+00
 3  3  2     2.6535474030e-01
 3  3  3    -2.5085444974e-01

   18
0.0000000000e+00 0.0000000000e+00 0.0000000000e+00
0.0000000000e+00 0.0000000000e+00 0.0000000000e+00
     1      2      1
 1  1  1     0.0000000000e+00
 1  1  2     1.4783838211e-02
 1  1  3     7.9252381945e-02
 1  2  1     1.4783838211e-02
 1  2  2     0.0000000000e+00
 1  2  3     0.0000000000e+00
 1  3  1     2.1287318983e-01
 1  3  2     0.0000000000e+00
 1  3  3     0.0000000000e+00
 2  1  1     1.4783838211e-02
 2  1  2     0.0000000000e+00
 2  1  3     0.0000000000e+00
 2  2  1     0.0000000000e+00
 2  2  2    -1.4783838211e-02
 2  2  3     7.9252381945e-02
 2  3  1     0.0000000000e+00
 2  3  2     2.1287318983e-01
 2  3  3     0.0000000000e+00
 3  1  1     7.9252381945e-02
 3  1  2     0.0000000000e+00
 3  1  3     0.0000000000e+00
 3  2  1     0.0000000000e+00
 3  2  2     7.9252381945e-02
 3  2  3     0.0000000000e+00
 3  3  1     0.0000000000e+00
 3  3  2     0.0000000000e+00
 3  3  3    -4.8619767778e-01

   19
0.0000000000e+00 0.0000000000e+00 0.0000000000e+00
0.0000000000e+00 0.0000000000e+00 0.0000000000e+00
     1      2      2
 1  1  1     0.0000000000e+00
 1  1  2    -1.4783838211e-02
 1  1  3    -7.9252381945e-02
 1  2  1    -1.4783838211e-02
 1  2  2     0.0000000000e+00
 1  2  3     0.0000000000e+00
 1  3  1    -7.9252381945e-02
 1  3  2     0.0000000000e+00
 1  3  3     0.0000000000e+00
 2  1  1    -1.4783838211e-02
 2  1  2     0.0000000000e+00
 2  1  3     0.0000000000e+00
 2  2  1     0.0000000000e+00
 2  2  2     1.4783838211e-02
 2  2  3    -7.9252381945e-02
 2  3  1     0.0000000000e+00
 2  3  2    -7.9252381945e-02
 2  3  3     0.0000000000e+00
 3  1  1    -2.1287318983e-01
 3  1  2     0.0000000000e+00
 3  1  3     0.0000000000e+00
 3  2  1     0.0000000000e+00
 3  2  2    -2.1287318983e-01
 3  2  3     0.0000000000e+00
 3  3  1     0.0000000000e+00
 3  3  2     0.0000000000e+00
 3  3  3     4.8619767778e-01

   20
0.0000000000e+00 0.0000000000e+00 0.0000000000e+00
0.0000000000e+00 0.0000000000e+00 0.0000000000e+00
     1      2      3
 1  1  1     0.0000000000e+00
 1  1  2     1.8784345200e-02
 1  1  3    -1.7861771765e-02
 1  2  1    -1.0816016196e-02
 1  2  2     0.0000000000e+00
 1  2  3     0.0000000000e+00
 1  3  1     1.7226177059e-02
 1  3  2     0.0000000000e+00
 1  3  3     0.0000000000e+00
 2  1  1     6.4632175358e-03
 2  1  2     0.0000000000e+00
 2  1  3     0.0000000000e+00
 2  2  1     0.0000000000e+00
 2  2  2     7.6718915070e-03
 2  2  3    -7.4436963841e-03
 2  3  1     0.0000000000e+00
 2  3  2    -9.6785461007e-02
 2  3  3    -4.2103658660e-02
 3  1  1     1.3363715180e-02
 3  1  2     0.0000000000e+00
 3  1  3     0.0000000000e+00
 3  2  1     0.0000000000e+00
 3  2  2    -3.8571353875e-03
 3  2  3     3.8517882268e-03
 3  3  1     0.0000000000e+00
 3  3  2     1.4668453239e-01
 3  3  3    -1.3456088725e-01

   21
0.0000000000e+00 0.0000000000e+00 0.0000000000e+00
0.0000000000e+00 0.0000000000e+00 0.0000000000e+00
     1      2      4
 1  1  1     8.1075611851e-03
 1  1  2     6.8573019627e-03
 1  1  3     1.0048215229e-02
 1  2  1     6.9673813040e-04
 1  2  2    -1.0830453038e-02
 1  2  3    -4.5111589694e-03
 1  3  1    -4.4807725425e-04
 1  3  2     7.4568470329e-03
 1  3  3     3.3357464544e-03
 2  1  1    -7.9428787354e-03
 2  1  2     4.1338023313e-03
 2  1  3    -4.5111589694e-03
 2  2  1     1.4804211892e-02
 2  2  2     6.3708163910e-03
 2  2  3     1.5257252920e-02
 2  3  1     7.4568470329e-03
 2  3  2    -9.0585025378e-03
 2  3  3     1.9258941134e-03
 3  1  1     6.8282551490e-02
 3  1  2     4.9368487446e-02
 3  1  3    -3.6462837992e-02
 3  2  1     4.9368487446e-02
 3  2  2     1.1276732457e-02
 3  2  3    -2.1051829330e-02
 3  3  1     1.2703253139e-01
 3  3  2     7.3342266195e-02
 3  3  3     1.3456088725e-01

   22
0.0000000000e+00 0.0000000000e+00 0.0000000000e+00
-2.4904256582e+00 0.0000000000e+00 0.0000000000e+00
     1      2      4
 1  1  1    -8.1075611851e-03
 1  1  2     6.8573019627e-03
 1  1  3     1.0048215229e-02
 1  2  1     6.9673813040e-04
 1  2  2     1.0830453038e-02
 1  2  3     4.5111589694e-03
 1  3  1    -4.4807725425e-04
 1  3  2    -7.4568470329e-03
 1  3  3    -3.3357464544e-03
 2  1  1    -7.9428787354e-03
 2  1  2    -4.1338023313e-03
 2  1  3     4.5111589694e-03
 2  2  1    -1.4804211892e-02
 2  2  2     6.3708163910e-03
 2  2  3     1.5257252920e-02
 2  3  1    -7.4568470329e-03
 2  3  2    -9.0585025378e-03
 2  3  3     1.9258941134e-03
 3  1  1     6.8282551490e-02
 3  1  2    -4.9368487446e-02
 3  1  3     3.6462837992e-02
 3  2  1    -4.9368487446e-02
 3  2  2     1.1276732457e-02
 3  2  3    -2.1051829330e-02
 3  3  1    -1.2703253139e-01
 3  3  2     7.3342266195e-02
 3  3  3     1.3456088725e-01

   23
0.0000000000e+00 0.0000000000e+00 0.0000000000e+00
1.2452128291e+00 -2.1567718862e+00 0.0000000000e+00
     1      2      3
 1  1  1     8.1075611851e-03
 1  1  2    -6.8573019627e-03
 1  1  3    -1.0048215229e-02
 1  2  1     7.9428787354e-03
 1  2  2     4.1338023313e-03
 1  2  3    -4.5111589694e-03
 1  3  1    -6.8282551490e-02
 1  3  2     4.9368487446e-02
 1  3  3    -3.6462837992e-02
 2  1  1    -6.9673813040e-04
 2  1  2    -1.0830453038e-02
 2  1  3    -4.5111589694e-03
 2  2  1     1.4804211892e-02
 2  2  2    -6.3708163910e-03
 2  2  3    -1.5257252920e-02
 2  3  1     4.9368487446e-02
 2  3  2    -1.1276732457e-02
 2  3  3     2.1051829330e-02
 3  1  1     4.4807725425e-04
 3  1  2     7.4568470329e-03
 3  1  3     3.3357464544e-03
 3  2  1     7.4568470329e-03
 3  2  2     9.0585025378e-03
 3  2  3    -1.9258941134e-03
 3  3  1     1.2703253139e-01
 3  3  2    -7.3342266195e-02
 3  3  3    -1.3456088725e-01

   24
0.0000000000e+00 0.0000000000e+00 0.0000000000e+00
-1.2452128291e+00 -2.1567718862e+00 0.0000000000e+00
     1      2      3
 1  1  1    -8.1075611851e-03
 1  1  2    -6.8573019627e-03
 1  1  3    -1.0048215229e-02
 1  2  1     7.9428787354e-03
 1  2  2    -4.1338023313e-03
 1  2  3     4.5111589694e-03
 1  3  1    -6.8282551490e-02
 1  3  2    -4.9368487446e-02
 1  3  3     3.6462837992e-02
 2  1  1    -6.9673813040e-04
 2  1  2     1.0830453038e-02
 2  1  3     4.5111589694e-03
 2  2  1    -1.4804211892e-02
 2  2  2    -6.3708163910e-03
 2  2  3    -1.5257252920e-02
 2  3  1    -4.9368487446e-02
 2  3  2    -1.1276732457e-02
 2  3  3     2.1051829330e-02
 3  1  1     4.4807725425e-04
 3  1  2    -7.4568470329e-03
 3  1  3    -3.3357464544e-03
 3  2  1    -7.4568470329e-03
 3  2  2     9.0585025378e-03
 3  2  3    -1.9258941134e-03
 3  3  1    -1.2703253139e-01
 3  3  2    -7.3342266195e-02
 3  3  3    -1.3456088725e-01

   25
0.0000000000e+00 0.0000000000e+00 0.0000000000e+00
-1.2452128291e+00 -2.1567718862e+00 0.0000000000e+00
     1      2      4
 1  1  1     0.0000000000e+00
 1  1  2    -1.8784345200e-02
 1  1  3     1.7861771765e-02
 1  2  1    -6.4632175358e-03
 1  2  2     0.0000000000e+00
 1  2  3     0.0000000000e+00
 1  3  1    -1.3363715180e-02
 1  3  2     0.0000000000e+00
 1  3  3     0.0000000000e+00
 2  1  1     1.0816016196e-02
 2  1  2     0.0000000000e+00
 2  1  3     0.0000000000e+00
 2  2  1     0.0000000000e+00
 2  2  2    -7.6718915070e-03
 2  2  3     7.4436963841e-03
 2  3  1     0.0000000000e+00
 2  3  2     3.8571353875e-03
 2  3  3    -3.8517882268e-03
 3  1  1    -1.7226177059e-02
 3  1  2     0.0000000000e+00
 3  1  3     0.0000000000e+00
 3  2  1     0.0000000000e+00
 3  2  2     9.6785461007e-02
 3  2  3     4.2103658660e-02
 3  3  1     0.0000000000e+00
 3  3  2    -1.4668453239e-01
 3  3  3     1.3456088725e-01

   26
0.0000000000e+00 0.0000000000e+00 0.0000000000e+00
0.0000000000e+00 0.0000000000e+00 0.0000000000e+00
     1      3      1
 1  1  1     0.0000000000e+00
 1  1  2     8.9321453412e+00
 1  1  3    -5.2872666099e-02
 1  2  1     5.8364278216e+00
 1  2  2     0.0000000000e+00
 1  2  3     0.0000000000e+00
 1  3  1    -3.0979202302e-02
 1  3  2     0.0000000000e+00
 1  3  3     0.0000000000e+00
 2  1  1     8.9321453412e+00
 2  1  2     0.0000000000e+00
 2  1  3     0.0000000000e+00
 2  2  1     0.0000000000e+00
 2  2  2    -1.6839921418e+02
 2  2  3     9.3095681187e-02
 2  3  1     0.0000000000e+00
 2  3  2    -7.7287762680e-02
 2  3  3     1.1297070956e+01
 3  1  1    -5.2872666099e-02
 3  1  2     0.0000000000e+00
 3  1  3     0.0000000000e+00
 3  2  1     0.0000000000e+00
 3  2  2     9.3095681187e-02
 3  2  3     9.9713888971e+00
 3  3  1     0.0000000000e+00
 3  3  2     1.1297070956e+01
 3  3  3     1.2492461479e-01

   27
0.0000000000e+00 0.0000000000e+00 0.0000000000e+00
0.0000000000e+00 0.0000000000e+00 0.0000000000e+00
     1      3      2
 1  1  1     0.0000000000e+00
 1  1  2    -1.0816016196e-02
 1  1  3     1.7226177059e-02
 1  2  1     1.8784345200e-02
 1  2  2     0.0000000000e+00
 1  2  3     0.0000000000e+00
 1  3  1    -1.7861771765e-02
 1  3  2     0.0000000000e+00
 1  3  3     0.0000000000e+00
 2  1  1     6.4632175358e-03
 2  1  2     0.0000000000e+00
 2  1  3     0.0000000000e+00
 2  2  1     0.0000000000e+00
 2  2  2     7.6718915070e-03
 2  2  3    -9.6785461007e-02
 2  3  1     0.0000000000e+00
 2  3  2    -7.4436963841e-03
 2  3  3    -4.2103658660e-02
 3  1  1     1.3363715180e-02
 3  1  2     0.0000000000e+00
 3  1  3     0.0000000000e+00
 3  2  1     0.0000000000e+00
 3  2  2    -3.8571353875e-03
 3  2  3     1.4668453239e-01
 3  3  1     0.0000000000e+00
 3  3  2     3.8517882268e-03
 3  3  3    -1.3456088725e-01

   28
0.0000000000e+00 0.0000000000e+00 0.0000000000e+00
0.0000000000e+00 0.0000000000e+00 0.0000000000e+00
     1      3      3
 1  1  1     0.0000000000e+00
 1  1  2    -8.4349536831e+00
 1  1  3    -2.1956855207e-02
 1  2  1    -8.4349536831e+00
 1  2  2     0.0000000000e+00
 1  2  3     0.0000000000e+00
 1  3  1    -2.1956855207e-02
 1  3  2     0.0000000000e+00
 1  3  3     0.0000000000e+00
 2  1  1    -5.0952203816e+00
 2  1  2     0.0000000000e+00
 2  1  3     0.0000000000e+00
 2  2  1     0.0000000000e+00
 2  2  2     1.6845759759e+02
 2  2  3     1.5767627138e-02
 2  3  1     0.0000000000e+00
 2  3  2     1.5767627138e-02
 2  3  3    -9.8514366374e+00
 3  1  1    -9.8632953946e-03
 3  1  2     0.0000000000e+00
 3  1  3     0.0000000000e+00
 3  2  1     0.0000000000e+00
 3  2  2    -1.5936780168e-01
 3  2  3    -1.1388803877e+01
 3  3  1     0.0000000000e+00
 3  3  2    -1.1388803877e+01
 3  3  3     1.3725472056e-01

   29
0.0000000000e+00 0.0000000000e+00 0.0000000000e+00
0.0000000000e+00 0.0000000000e+00 0.0000000000e+00
     1      3      4
 1  1  1    -1.0359456523e-02
 1  1  2     4.2312129429e-03
 1  1  3     6.7978179907e-03
 1  2  1    -8.9899930102e-03
 1  2  2    -6.6318830527e-03
 1  2  3    -2.8472394529e-03
 1  3  1    -6.4609878554e-04
 1  3  2    -1.0986873139e-02
 1  3  3    -1.2297120618e-02
 2  1  1     4.1575668808e-03
 2  1  2     2.1802755812e-03
 2  1  3     5.9782068046e-03
 2  2  1    -4.0352871972e-03
 2  2  2    -2.8115371689e-02
 2  2  3    -2.7455495288e-02
 2  3  1     2.2462467694e-02
 2  3  2     1.6581672003e-02
 2  3  3    -2.2665001006e-02
 3  1  1    -1.0691296733e-02
 3  1  2    -1.9352217071e-03
 3  1  3     6.6556948009e-03
 3  2  1    -5.7858395775e-02
 3  2  2    -2.1398199623e-02
 3  2  3    -6.4365777986e-04
 3  3  1     2.5156398713e-02
 3  3  2     2.8983297775e-02
 3  3  3    -5.7311147926e-02

   30
0.0000000000e+00 0.0000000000e+00 0.0000000000e+00
2.4904256582e+00 0.0000000000e+00 0.0000000000e+00
     1      3      1
 1  1  1     1.2309017764e+00
 1  1  2     2.6556103892e-01
 1  1  3     9.1987364687e-03
 1  2  1    -1.3454608920e+00
 1  2  2    -1.5098067502e+00
 1  2  3    -7.1096862220e-03
 1  3  1    -8.7805440836e-04
 1  3  2    -8.8082023114e-03
 1  3  3    -7.1550358017e-01
 2  1  1     3.5798092497e-01
 2  1  2     4.7317786421e-01
 2  1  3     1.0886704972e-02
 2  2  1    -1.3498997335e+00
 2  2  2    -1.2611625054e+00
 2  2  3    -2.5334274421e-02
 2  3  1     1.4066878437e-02
 2  3  2     1.0318131678e-02
 2  3  3     1.4112149581e-02
 3  1  1    -4.1167614276e-03
 3  1  2     3.3758230789e-03
 3  1  3     1.1837480264e-01
 3  2  1     1.7963187698e-02
 3  2  2     1.1913869791e-02
 3  2  3    -4.0292471308e-01
 3  3  1     6.9831351688e-01
 3  3  2     4.5682081574e-01
 3  3  3     1.8096872398e-02

   31
0.0000000000e+00 0.0000000000e+00 0.0000000000e+00
2.4904256582e+00 0.0000000000e+00 0.0000000000e+00
     1      3      3
 1  1  1     1.2774205663e+00
 1  1  2    -2.4718594803e-01
 1  1  3     1.2302461850e-02
 1  2  1    -3.3985570421e-01
 1  2  2     4.5211500091e-01
 1  2  3    -7.7572730874e-03
 1  3  1     0.0000000000e+00
 1  3  2    -7.4610878563e-03
 1  3  3     1.1368873698e-01
 2  1  1     1.3463222352e+00
 2  1  2    -1.5825524529e+00
 2  1  3     1.5696701647e-02
 2  2  1    -1.2762069830e+00
 2  2  2     1.1385402941e+00
 2  2  3    -2.1433474713e-02
 2  3  1    -5.1442971238e-03
 2  3  2    -6.2414022345e-03
 2  3  3     3.8207805187e-01
 3  1  1    -9.3660619082e-03
 3  1  2     7.5410189220e-03
 3  1  3    -7.0824915359e-01
 3  2  1     4.6091505957e-03
 3  2  2    -4.5808204015e-03
 3  2  3    -2.5607690222e-02
 3  3  1     6.9218915271e-01
 3  3  2    -4.5374215861e-01
 3  3  3     1.5935686238e-02

   32
0.0000000000e+00 0.0000000000e+00 0.0000000000e+00
-2.4904256582e+00 0.0000000000e+00 0.0000000000e+00
     1      3      1
 1  1  1    -1.2309017764e+00
 1  1  2     2.6556103892e-01
 1  1  3     9.1987364687e-03
 1  2  1    -1.3454608920e+00
 1  2  2     1.5098067502e+00
 1  2  3     7.1096862220e-03
 1  3  1    -8.7805440836e-04
 1  3  2     8.8082023114e-03
 1  3  3     7.1550358017e-01
 2  1  1     3.5798092497e-01
 2  1  2    -4.7317786421e-01
 2  1  3    -1.0886704972e-02
 2  2  1     1.3498997335e+00
 2  2  2    -1.2611625054e+00
 2  2  3    -2.5334274421e-02
 2  3  1    -1.4066878437e-02
 2  3  2     1.0318131678e-02
 2  3  3     1.4112149581e-02
 3  1  1    -4.1167614276e-03
 3  1  2    -3.3758230789e-03
 3  1  3    -1.1837480264e-01
 3  2  1    -1.7963187698e-02
 3  2  2     1.1913869791e-02