   0.73776E+00   0.43217E-02   0.36065E-02   0.36065E-02
   0.14755E+01   0.63360E-02   0.53763E-02   0.53763E-02
   0.22133E+01   0.63311E-02   0.54462E-02   0.54462E-02
   0.29510E+01   0.78811E-02   0.68783E-02   0.68783E-02
   0.36888E+01   0.79567E-02   0.70008E-02   0.70008E-02
   0.44266E+01   0.84020E-02   0.74861E-02   0.74861E-02
   0.51643E+01   0.97139E-02   0.87387E-02   0.87387E-02
   0.59021E+01   0.10520E-01   0.95767E-02   0.95767E-02
   0.66398E+01   0.11303E-01   0.10389E-01   0.10389E-01
   0.73776E+01   0.12303E-01   0.11384E-01   0.11384E-01
   0.81154E+01   0.12763E-01   0.11951E-01   0.11951E-01
   0.88531E+01   0.13810E-01   0.13033E-01   0.13033E-01
   0.95909E+01   0.14728E-01   0.14018E-01   0.14018E-01
   0.10329E+02   0.15301E-01   0.14744E-01   0.14744E-01
   0.11066E+02   0.16667E-01   0.16180E-01   0.16180E-01
   0.11804E+02   0.17842E-01   0.17484E-01   0.17484E-01
   0.12542E+02   0.19084E-01   0.18941E-01   0.18941E-01
   0.13280E+02   0.21501E-01   0.21511E-01   0.21511E-01
   0.14017E+02   0.24100E-01   0.24334E-01   0.24334E-01
   0.14755E+02   0.24858E-01   0.25469E-01   0.25469E-01
   0.15493E+02   0.24406E-01   0.25347E-01   0.25347E-01
   0.16231E+02   0.28608E-01   0.30012E-01   0.30012E-01
   0.16968E+02   0.29142E-01   0.30929E-01   0.30929E-01
   0.17706E+02   0.32580E-01   0.35080E-01   0.35080E-01
   0.18444E+02   0.37195E-01   0.40647E-01   0.40647E-01
   0.19182E+02   0.43794E-01   0.48573E-01   0.48573E-01
   0.19920E+02   0.70143E-01   0.79644E-01   0.79644E-01
   0.20657E+02   0.53903E-01   0.60309E-01   0.60309E-01
   0.21395E+02   0.47986E-01   0.52887E-01   0.52887E-01
   0.22133E+02   0.51604E-01   0.56159E-01   0.56159E-01
   0.22871E+02   0.57006E-01   0.59613E-01   0.59613E-01
   0.23608E+02   0.13568E+00   0.10662E+00   0.10662E+00
   0.24346E+02   0.92095E-01   0.82912E-01   0.82912E-01
   0.25084E+02   0.10109E+00   0.11430E+00   0.11430E+00
   0.25822E+02   0.24898E-01   0.20211E-01   0.20211E-01
   0.26559E+02   0.49869E-01   0.45548E-01   0.45548E-01
   0.27297E+02   0.58714E-01   0.59659E-01   0.59659E-01
   0.28035E+02   0.72043E-01   0.73257E-01   0.73257E-01
   0.28773E+02   0.61163E-01   0.59229E-01   0.59229E-01
   0.29510E+02   0.94615E-01   0.79024E-01   0.79024E-01
   0.30248E+02   0.00000E+00   0.00000E+00   0.00000E+00
   0.30986E+02   0.00000E+00   0.00000E+00   0.00000E+00
   0.31724E+02   0.00000E+00   0.00000E+00   0.00000E+00
   0.32461E+02   0.68596E-04   0.69360E-01   0.69360E-01
   0.33199E+02   0.23387E-03   0.75570E-01   0.75570E-01
   0.33937E+02   0.40335E-03   0.11729E+00   0.11729E+00
   0.34675E+02   0.74952E-03   0.18279E+00   0.18279E+00
   0.35413E+02   0.11230E-02   0.11724E+00   0.11724E+00
   0.36150E+02   0.12994E-02   0.98567E-01   0.98567E-01
   0.36888E+02   0.12360E-02   0.95001E-01   0.95001E-01
   0.37626E+02   0.92590E-03   0.48099E-01   0.48099E-01
   0.38364E+02   0.19785E-02   0.34835E+00   0.34835E+00
   0.39101E+02   0.82411E-03   0.79537E-01   0.79537E-01
   0.39839E+02   0.38133E-02   0.16996E+00   0.16996E+00
   0.40577E+02   0.70196E-02   0.20921E+00   0.20921E+00
   0.41315E+02   0.38255E-02   0.44481E-01   0.44481E-01
   0.42052E+02   0.30959E-02   0.33811E-01   0.33811E-01
   0.42790E+02   0.25869E-02   0.29848E-01   0.29848E-01
   0.43528E+02   0.19556E-02   0.26597E-01   0.26597E-01
   0.44266E+02   0.11532E-02   0.21738E-01   0.21738E-01
   0.45003E+02   0.52584E-03   0.20230E-01   0.20230E-01
   0.45741E+02   0.00000E+00   0.00000E+00   0.00000E+00
   0.46479E+02   0.00000E+00   0.00000E+00   0.00000E+00
   0.47217E+02   0.00000E+00   0.00000E+00   0.00000E+00
   0.47954E+02   0.00000E+00   0.00000E+00   0.00000E+00
   0.48692E+02   0.00000E+00   0.00000E+00   0.00000E+00
   0.49430E+02   0.00000E+00   0.00000E+00   0.00000E+00
   0.50168E+02   0.00000E+00   0.00000E+00   0.00000E+00
   0.50905E+02   0.00000E+00   0.00000E+00   0.00000E+00
   0.51643E+02   0.00000E+00   0.00000E+00   0.00000E+00
   0.52381E+02   0.00000E+00   0.00000E+00   0.00000E+00
   0.53119E+02   0.13426E+00   0.62951E-01   0.62951E-01
   0.53857E+02   0.37818E+00   0.11293E+00   0.11293E+00
   0.54594E+02   0.73383E-01   0.23061E-01   0.23061E-01
   0.55332E+02   0.18175E+00   0.55757E-01   0.55757E-01
   0.56070E+02   0.53491E+00   0.13500E+00   0.13500E+00
   0.56808E+02   0.36858E+00   0.70149E-01   0.70149E-01
   0.57545E+02   0.24842E+00   0.43185E-01   0.43185E-01
   0.58283E+02   0.77693E-01   0.16651E-01   0.16651E-01
   0.59021E+02   0.65156E-01   0.14185E-01   0.14185E-01
   0.59759E+02   0.55681E-01   0.12390E-01   0.12390E-01
   0.60496E+02   0.46787E-01   0.10688E-01   0.10688E-01
   0.61234E+02   0.40917E-01   0.96206E-02   0.96206E-02
   0.61972E+02   0.37013E-01   0.89754E-02   0.89754E-02
   0.62710E+02   0.34500E-01   0.86417E-02   0.86417E-02
   0.63447E+02   0.34693E-01   0.89824E-02   0.89824E-02
   0.64185E+02   0.31915E-01   0.85373E-02   0.85373E-02
   0.64923E+02   0.29739E-01   0.82352E-02   0.82352E-02
   0.65661E+02   0.26722E-01   0.76489E-02   0.76489E-02
   0.66398E+02   0.22264E-01   0.65753E-02   0.65753E-02
   0.67136E+02   0.00000E+00   0.00000E+00   0.00000E+00
   0.67874E+02   0.00000E+00   0.00000E+00   0.00000E+00
   0.68612E+02   0.00000E+00   0.00000E+00   0.00000E+00
   0.69350E+02   0.00000E+00   0.00000E+00   0.00000E+00
   0.70087E+02   0.00000E+00   0.00000E+00   0.00000E+00
   0.70825E+02   0.00000E+00   0.00000E+00   0.00000E+00
   0.71563E+02   0.00000E+00   0.00000E+00   0.00000E+00
   0.72301E+02   0.00000E+00   0.00000E+00   0.00000E+00
   0.73038E+02   0.00000E+00   0.00000E+00   0.00000E+00
   0.73776E+02   0.00000E+00   0.00000E+00   0.00000E+00
