 1468

    1
0.0000000000e+00 0.0000000000e+00 0.0000000000e+00
0.0000000000e+00 0.0000000000e+00 0.0000000000e+00
     1      1      1
 1  1  1     0.0000000000e+00
 1  1  2    -1.7401958428e+02
 1  1  3     0.0000000000e+00
 1  2  1    -1.7401958428e+02
 1  2  2     0.0000000000e+00
 1  2  3     0.0000000000e+00
 1  3  1     0.0000000000e+00
 1  3  2     0.0000000000e+00
 1  3  3     0.0000000000e+00
 2  1  1    -1.7401958428e+02
 2  1  2     0.0000000000e+00
 2  1  3     0.0000000000e+00
 2  2  1     0.0000000000e+00
 2  2  2     1.7401958428e+02
 2  2  3     0.0000000000e+00
 2  3  1     0.0000000000e+00
 2  3  2     0.0000000000e+00
 2  3  3     0.0000000000e+00
 3  1  1     0.0000000000e+00
 3  1  2     0.0000000000e+00
 3  1  3     0.0000000000e+00
 3  2  1     0.0000000000e+00
 3  2  2     0.0000000000e+00
 3  2  3     0.0000000000e+00
 3  3  1     0.0000000000e+00
 3  3  2     0.0000000000e+00
 3  3  3     0.0000000000e+00

    2
0.0000000000e+00 0.0000000000e+00 0.0000000000e+00
0.0000000000e+00 0.0000000000e+00 0.0000000000e+00
     1      1      2
 1  1  1     0.0000000000e+00
 1  1  2     1.3498288387e-02
 1  1  3     1.2134875901e-01
 1  2  1     1.3498288387e-02
 1  2  2     0.0000000000e+00
 1  2  3     0.0000000000e+00
 1  3  1     4.4961686828e-02
 1  3  2     0.0000000000e+00
 1  3  3     0.0000000000e+00
 2  1  1     1.3498288387e-02
 2  1  2     0.0000000000e+00
 2  1  3     0.0000000000e+00
 2  2  1     0.0000000000e+00
 2  2  2    -1.3498288387e-02
 2  2  3     1.2134875901e-01
 2  3  1     0.0000000000e+00
 2  3  2     4.4961686828e-02
 2  3  3     0.0000000000e+00
 3  1  1     4.4961686828e-02
 3  1  2     0.0000000000e+00
 3  1  3     0.0000000000e+00
 3  2  1     0.0000000000e+00
 3  2  2     4.4961686828e-02
 3  2  3     0.0000000000e+00
 3  3  1     0.0000000000e+00
 3  3  2     0.0000000000e+00
 3  3  3     3.4709894033e-02

    3
0.0000000000e+00 0.0000000000e+00 0.0000000000e+00
0.0000000000e+00 0.0000000000e+00 0.0000000000e+00
     1      1      3
 1  1  1     0.0000000000e+00
 1  1  2     1.0294703485e+01
 1  1  3     0.0000000000e+00
 1  2  1     1.3364363015e+01
 1  2  2     0.0000000000e+00
 1  2  3     0.0000000000e+00
 1  3  1     0.0000000000e+00
 1  3  2     0.0000000000e+00
 1  3  3     0.0000000000e+00
 2  1  1     1.3364363015e+01
 2  1  2     0.0000000000e+00
 2  1  3     0.0000000000e+00
 2  2  1     0.0000000000e+00
 2  2  2    -1.9712053147e+02
 2  2  3     0.0000000000e+00
 2  3  1     0.0000000000e+00
 2  3  2     0.0000000000e+00
 2  3  3     1.5986042205e+01
 3  1  1     0.0000000000e+00
 3  1  2     0.0000000000e+00
 3  1  3     0.0000000000e+00
 3  2  1     0.0000000000e+00
 3  2  2     0.0000000000e+00
 3  2  3     1.5986042205e+01
 3  3  1     0.0000000000e+00
 3  3  2     1.3564108078e+01
 3  3  3     0.0000000000e+00

    4
0.0000000000e+00 0.0000000000e+00 0.0000000000e+00
0.0000000000e+00 0.0000000000e+00 0.0000000000e+00
     1      1      4
 1  1  1    -3.4986040103e-03
 1  1  2    -1.1371172889e-02
 1  1  3     3.7890927233e-02
 1  2  1    -8.2611288992e-03
 1  2  2     6.2938339801e-04
 1  2  3     2.1995274071e-03
 1  3  1    -3.3255871981e-02
 1  3  2    -1.3619971054e-02
 1  3  3    -3.1947189022e-02
 2  1  1    -8.2611288992e-03
 2  1  2     6.2938339801e-04
 2  1  3     2.1995274071e-03
 2  2  1    -4.7573708064e-03
 2  2  2     6.6045836064e-03
 2  2  3     3.5351131752e-02
 2  3  1    -1.3619971054e-02
 2  3  2    -1.7528884072e-02
 2  3  3    -1.8444718182e-02
 3  1  1    -3.3255871981e-02
 3  1  2    -1.3619971054e-02
 3  1  3    -3.1947189022e-02
 3  2  1    -1.3619971054e-02
 3  2  2    -1.7528884072e-02
 3  2  3    -1.8444718182e-02
 3  3  1    -1.5120741011e-01
 3  3  2    -8.7299638928e-02
 3  3  3    -1.2586396302e-01

    5
0.0000000000e+00 0.0000000000e+00 0.0000000000e+00
2.4486138918e+00 0.0000000000e+00 0.0000000000e+00
     1      1      1
 1  1  1    -1.0682291276e+01
 1  1  2    -7.9351248865e-01
 1  1  3     0.0000000000e+00
 1  2  1     1.6349758596e+00
 1  2  2     2.2717300136e+00
 1  2  3     0.0000000000e+00
 1  3  1     0.0000000000e+00
 1  3  2     0.0000000000e+00
 1  3  3     2.3411946271e+00
 2  1  1     1.6349758596e+00
 2  1  2     2.2717300136e+00
 2  1  3     0.0000000000e+00
 2  2  1     2.4283364672e+00
 2  2  2     1.2317417335e+00
 2  2  3     0.0000000000e+00
 2  3  1     0.0000000000e+00
 2  3  2     0.0000000000e+00
 2  3  3     9.4438387107e-01
 3  1  1     0.0000000000e+00
 3  1  2     0.0000000000e+00
 3  1  3     2.3411946271e+00
 3  2  1     0.0000000000e+00
 3  2  2     0.0000000000e+00
 3  2  3     9.4438387107e-01
 3  3  1    -4.2080947849e-01
 3  3  2     5.6401015349e-01
 3  3  3     0.0000000000e+00

    6
0.0000000000e+00 0.0000000000e+00 0.0000000000e+00
2.4486138918e+00 0.0000000000e+00 0.0000000000e+00
     1      1      3
 1  1  1    -1.8227909348e+00
 1  1  2     1.1418108951e+00
 1  1  3     0.0000000000e+00
 1  2  1    -5.9256173468e-01
 1  2  2    -1.6089374830e+00
 1  2  3     0.0000000000e+00
 1  3  1     0.0000000000e+00
 1  3  2     0.0000000000e+00
 1  3  3     4.7146076185e-02
 2  1  1    -5.9256173468e-01
 2  1  2    -1.6089374830e+00
 2  1  3     0.0000000000e+00
 2  2  1     1.3950840311e+00
 2  2  2    -1.3887475911e+00
 2  2  3     0.0000000000e+00
 2  3  1     0.0000000000e+00
 2  3  2     0.0000000000e+00
 2  3  3     2.7219799777e-02
 3  1  1     0.0000000000e+00
 3  1  2     0.0000000000e+00
 3  1  3     4.7146076185e-02
 3  2  1     0.0000000000e+00
 3  2  2     0.0000000000e+00
 3  2  3     2.7219799777e-02
 3  3  1    -9.0774530692e-02
 3  3  2    -5.2408699731e-02
 3  3  3     0.0000000000e+00

    7
0.0000000000e+00 0.0000000000e+00 0.0000000000e+00
-2.4486138918e+00 0.0000000000e+00 0.0000000000e+00
     1      1      1
 1  1  1     1.0682291276e+01
 1  1  2    -7.9351248865e-01
 1  1  3     0.0000000000e+00
 1  2  1     1.6349758596e+00
 1  2  2    -2.2717300136e+00
 1  2  3     0.0000000000e+00
 1  3  1     0.0000000000e+00
 1  3  2     0.0000000000e+00
 1  3  3    -2.3411946271e+00
 2  1  1     1.6349758596e+00
 2  1  2    -2.2717300136e+00
 2  1  3     0.0000000000e+00
 2  2  1    -2.4283364672e+00
 2  2  2     1.2317417335e+00
 2  2  3     0.0000000000e+00
 2  3  1     0.0000000000e+00
 2  3  2     0.0000000000e+00
 2  3  3     9.4438387107e-01
 3  1  1     0.0000000000e+00
 3  1  2     0.0000000000e+00
 3  1  3    -2.3411946271e+00
 3  2  1     0.0000000000e+00
 3  2  2     0.0000000000e+00
 3  2  3     9.4438387107e-01
 3  3  1     4.2080947849e-01
 3  3  2     5.6401015349e-01
 3  3  3     0.0000000000e+00

    8
0.0000000000e+00 0.0000000000e+00 0.0000000000e+00
-2.4486138918e+00 0.0000000000e+00 0.0000000000e+00
     1      1      3
 1  1  1     1.8227909348e+00
 1  1  2     1.1418108951e+00
 1  1  3     0.0000000000e+00
 1  2  1    -5.9256173468e-01
 1  2  2     1.6089374830e+00
 1  2  3     0.0000000000e+00
 1  3  1     0.0000000000e+00
 1  3  2     0.0000000000e+00
 1  3  3    -4.7146076185e-02
 2  1  1    -5.9256173468e-01
 2  1  2     1.6089374830e+00
 2  1  3     0.0000000000e+00
 2  2  1    -1.3950840311e+00
 2  2  2    -1.3887475911e+00
 2  2  3     0.0000000000e+00
 2  3  1     0.0000000000e+00
 2  3  2     0.0000000000e+00
 2  3  3     2.7219799777e-02
 3  1  1     0.0000000000e+00
 3  1  2     0.0000000000e+00
 3  1  3    -4.7146076185e-02
 3  2  1     0.0000000000e+00
 3  2  2     0.0000000000e+00
 3  2  3     2.7219799777e-02
 3  3  1     9.0774530692e-02
 3  3  2    -5.2408699731e-02
 3  3  3     0.0000000000e+00

    9
0.0000000000e+00 0.0000000000e+00 0.0000000000e+00
-2.4486138918e+00 0.0000000000e+00 0.0000000000e+00
     1      1      4
 1  1  1     3.4986040103e-03
 1  1  2    -1.1371172889e-02
 1  1  3     3.7890927233e-02
 1  2  1    -8.2611288992e-03
 1  2  2    -6.2938339801e-04
 1  2  3    -2.1995274071e-03
 1  3  1    -3.3255871981e-02
 1  3  2     1.3619971054e-02
 1  3  3     3.1947189022e-02
 2  1  1    -8.2611288992e-03
 2  1  2    -6.2938339801e-04
 2  1  3    -2.1995274071e-03
 2  2  1     4.7573708064e-03
 2  2  2     6.6045836064e-03
 2  2  3     3.5351131752e-02
 2  3  1     1.3619971054e-02
 2  3  2    -1.7528884072e-02
 2  3  3    -1.8444718182e-02
 3  1  1    -3.3255871981e-02
 3  1  2     1.3619971054e-02
 3  1  3     3.1947189022e-02
 3  2  1     1.3619971054e-02
 3  2  2    -1.7528884072e-02
 3  2  3    -1.8444718182e-02
 3  3  1     1.5120741011e-01
 3  3  2    -8.7299638928e-02
 3  3  3    -1.2586396302e-01

   10
0.0000000000e+00 0.0000000000e+00 0.0000000000e+00
-1.2243069459e+00 2.1205618344e+00 0.0000000000e+00
     1      1      1
 1  1  1    -2.6153418210e+00
 1  1  2    -8.5570324724e-01
 1  1  3     0.0000000000e+00
 1  2  1    -2.2055725886e+00
 1  2  2     4.3379721914e+00
 1  2  3     0.0000000000e+00
 1  3  1     0.0000000000e+00
 1  3  2     0.0000000000e+00
 1  3  3    -1.9884577368e+00
 2  1  1    -2.2055725886e+00
 2  1  2     4.3379721914e+00
 2  1  3     0.0000000000e+00
 2  2  1     6.3628015670e+00
 2  2  2    -6.5115459216e+00
 2  2  3     0.0000000000e+00
 2  3  1     0.0000000000e+00
 2  3  2     0.0000000000e+00
 2  3  3     1.5553420867e+00
 3  1  1     0.0000000000e+00
 3  1  2     0.0000000000e+00
 3  1  3    -1.9884577368e+00
 3  2  1     0.0000000000e+00
 3  2  2     0.0000000000e+00
 3  2  3     1.5553420867e+00
 3  3  1    -2.7804238167e-01
 3  3  2    -6.4643677527e-01
 3  3  3     0.0000000000e+00

   11
0.0000000000e+00 0.0000000000e+00 0.0000000000e+00
-1.2243069459e+00 2.1205618344e+00 0.0000000000e+00
     1      1      3
 1  1  1     1.2178193066e-01
 1  1  2    -8.0091868398e-01
 1  1  3     0.0000000000e+00
 1  2  1    -4.9528340639e-01
 1  2  2     6.4282924414e-02
 1  2  3     0.0000000000e+00
 1  3  1     0.0000000000e+00
 1  3  2     0.0000000000e+00
 1  3  3    -1.4236958751e-01
 2  1  1    -4.9528340639e-01
 2  1  2     6.4282924414e-02
 2  1  3     0.0000000000e+00
 2  2  1     4.8174665961e-01
 2  2  2     1.1658112079e+00
 2  2  3     0.0000000000e+00
 2  3  1     0.0000000000e+00
 2  3  2     0.0000000000e+00
 2  3  3    -1.0550213907e-01
 3  1  1     0.0000000000e+00
 3  1  2     0.0000000000e+00
 3  1  3    -1.4236958751e-01
 3  2  1     0.0000000000e+00
 3  2  2     0.0000000000e+00
 3  2  3    -1.0550213907e-01
 3  3  1     1.5083062672e-01
 3  3  2    -1.7003465950e-01
 3  3  3     0.0000000000e+00

   12
0.0000000000e+00 0.0000000000e+00 0.0000000000e+00
1.2243069459e+00 2.1205618344e+00 0.0000000000e+00
     1      1      1
 1  1  1     2.6153418210e+00
 1  1  2    -8.5570324724e-01
 1  1  3     0.0000000000e+00
 1  2  1    -2.2055725886e+00
 1  2  2    -4.3379721914e+00
 1  2  3     0.0000000000e+00
 1  3  1     0.0000000000e+00
 1  3  2     0.0000000000e+00
 1  3  3     1.9884577368e+00
 2  1  1    -2.2055725886e+00
 2  1  2    -4.3379721914e+00
 2  1  3     0.0000000000e+00
 2  2  1    -6.3628015670e+00
 2  2  2    -6.5115459216e+00
 2  2  3     0.0000000000e+00
 2  3  1     0.0000000000e+00
 2  3  2     0.0000000000e+00
 2  3  3     1.5553420867e+00
 3  1  1     0.0000000000e+00
 3  1  2     0.0000000000e+00
 3  1  3     1.9884577368e+00
 3  2  1     0.0000000000e+00
 3  2  2     0.0000000000e+00
 3  2  3     1.5553420867e+00
 3  3  1     2.7804238167e-01
 3  3  2    -6.4643677527e-01
 3  3  3     0.0000000000e+00

   13
0.0000000000e+00 0.0000000000e+00 0.0000000000e+00
1.2243069459e+00 2.1205618344e+00 0.0000000000e+00
     1      1      3
 1  1  1    -1.2178193066e-01
 1  1  2    -8.0091868398e-01
 1  1  3     0.0000000000e+00
 1  2  1    -4.9528340639e-01
 1  2  2    -6.4282924414e-02
 1  2  3     0.0000000000e+00
 1  3  1     0.0000000000e+00
 1  3  2     0.0000000000e+00
 1  3  3     1.4236958751e-01
 2  1  1    -4.9528340639e-01
 2  1  2    -6.4282924414e-02
 2  1  3     0.0000000000e+00
 2  2  1    -4.8174665961e-01
 2  2  2     1.1658112079e+00
 2  2  3     0.0000000000e+00
 2  3  1     0.0000000000e+00
 2  3  2     0.0000000000e+00
 2  3  3    -1.0550213907e-01
 3  1  1     0.0000000000e+00
 3  1  2     0.0000000000e+00
 3  1  3     1.4236958751e-01
 3  2  1     0.0000000000e+00
 3  2  2     0.0000000000e+00
 3  2  3    -1.0550213907e-01
 3  3  1    -1.5083062672e-01
 3  3  2    -1.7003465950e-01
 3  3  3     0.0000000000e+00

   14
0.0000000000e+00 0.0000000000e+00 0.0000000000e+00
2.4486138918e+00 -4.2411236687e+00 0.0000000000e+00
     1      1      3
 1  1  1     6.1343853586e-01
 1  1  2    -3.9709204957e-01
 1  1  3     0.0000000000e+00
 1  2  1    -9.1144388820e-01
 1  2  2     6.0288001726e-02
 1  2  3     0.0000000000e+00
 1  3  1     0.0000000000e+00
 1  3  2     0.0000000000e+00
 1  3  3    -1.6255232634e-01
 2  1  1    -9.1144388820e-01
 2  1  2     6.0288001726e-02
 2  1  3     0.0000000000e+00
 2  2  1     4.3319546335e-03
 2  2  2     7.3731687869e-01
 2  2  3     0.0000000000e+00
 2  3  1     0.0000000000e+00
 2  3  2     0.0000000000e+00
 2  3  3    -7.0544609974e-02
 3  1  1     0.0000000000e+00
 3  1  2     0.0000000000e+00
 3  1  3    -1.6255232634e-01
 3  2  1     0.0000000000e+00
 3  2  2     0.0000000000e+00
 3  2  3    -7.0544609974e-02
 3  3  1    -7.1839021290e-02
 3  3  2     2.1564048416e-01
 3  3  3     0.0000000000e+00

   15
0.0000000000e+00 0.0000000000e+00 0.0000000000e+00
-2.4486138918e+00 -4.2411236687e+00 0.0000000000e+00
     1      1      3
 1  1  1    -6.1343853586e-01
 1  1  2    -3.9709204957e-01
 1  1  3     0.0000000000e+00
 1  2  1    -9.1144388820e-01
 1  2  2    -6.0288001726e-02
 1  2  3     0.0000000000e+00
 1  3  1     0.0000000000e+00
 1  3  2     0.0000000000e+00
 1  3  3     1.6255232634e-01
 2  1  1    -9.1144388820e-01
 2  1  2    -6.0288001726e-02
 2  1  3     0.0000000000e+00
 2  2  1    -4.3319546335e-03
 2  2  2     7.3731687869e-01
 2  2  3     0.0000000000e+00
 2  3  1     0.0000000000e+00
 2  3  2     0.0000000000e+00
 2  3  3    -7.0544609974e-02
 3  1  1     0.0000000000e+00
 3  1  2     0.0000000000e+00
 3  1  3     1.6255232634e-01
 3  2  1     0.0000000000e+00
 3  2  2     0.0000000000e+00
 3  2  3    -7.0544609974e-02
 3  3  1     7.1839021290e-02
 3  3  2     2.1564048416e-01
 3  3  3     0.0000000000e+00

   16
0.0000000000e+00 0.0000000000e+00 0.0000000000e+00
0.0000000000e+00 -4.2411236687e+00 0.0000000000e+00
     1      1      3
 1  1  1     0.0000000000e+00
 1  1  2    -1.2745455276e+00
 1  1  3     0.0000000000e+00
 1  2  1     2.1941997320e+00
 1  2  2     0.0000000000e+00
 1  2  3     0.0000000000e+00
 1  3  1     0.0000000000e+00
 1  3  2     0.0000000000e+00
 1  3  3     0.0000000000e+00
 2  1  1     2.1941997320e+00
 2  1  2     0.0000000000e+00
 2  1  3     0.0000000000e+00
 2  2  1     0.0000000000e+00
 2  2  2     1.7684189195e+00
 2  2  3     0.0000000000e+00
 2  3  1     0.0000000000e+00
 2  3  2     0.0000000000e+00
 2  3  3    -5.4439599553e-02
 3  1  1     0.0000000000e+00
 3  1  2     0.0000000000e+00
 3  1  3     0.0000000000e+00
 3  2  1     0.0000000000e+00
 3  2  2     0.0000000000e+00
 3  2  3    -5.4439599553e-02
 3  3  1     0.0000000000e+00
 3  3  2     1.0481739946e-01
 3  3  3     0.0000000000e+00

   17
0.0000000000e+00 0.0000000000e+00 0.0000000000e+00
1.2243069459e+00 -2.1205618344e+00 0.0000000000e+00
     1      1      1
 1  1  1    -5.7067269389e-02
 1  1  2     2.5827388587e+00
 1  1  3     0.0000000000e+00
 1  2  1     1.5041198519e+00
 1  2  2    -6.6308636231e+00
 1  2  3     0.0000000000e+00
 1  3  1     0.0000000000e+00
 1  3  2     0.0000000000e+00
 1  3  3     3.5273689028e-01
 2  1  1     1.5041198519e+00
 2  1  2    -6.6308636231e+00
 2  1  3     0.0000000000e+00
 2  2  1    -4.4494277939e+00
 2  2  2     4.3462810653e+00
 2  2  3     0.0000000000e+00
 2  3  1     0.0000000000e+00
 2  3  2     0.0000000000e+00
 2  3  3    -2.4997259578e+00
 3  1  1     0.0000000000e+00
 3  1  2     0.0000000000e+00
 3  1  3     3.5273689028e-01
 3  2  1     0.0000000000e+00
 3  2  2     0.0000000000e+00
 3  2  3    -2.4997259578e+00
 3  3  1    -6.9885186016e-01
 3  3  2     8.2426621780e-02
 3  3  3     0.0000000000e+00

   18
0.0000000000e+00 0.0000000000e+00 0.0000000000e+00
1.2243069459e+00 -2.1205618344e+00 0.0000000000e+00
     1      1      3
 1  1  1    -1.2001773327e+02
 1  1  2     8.2656633625e+01
 1  1  3     0.0000000000e+00
 1  2  1     8.1121803860e+01
 1  2  2    -3.9119776711e+01
 1  2  3     0.0000000000e+00
 1  3  1     0.0000000000e+00
 1  3  2     0.0000000000e+00
 1  3  3     1.3844318656e+01
 2  1  1     8.1121803860e+01
 2  1  2    -3.9119776711e+01
 2  1  3     0.0000000000e+00
 2  2  1    -4.1778179846e+01
 2  2  2     1.0756280365e+01
 2  2  3     0.0000000000e+00
 2  3  1     0.0000000000e+00
 2  3  2     0.0000000000e+00
 2  3  3    -7.9930211027e+00
 3  1  1     0.0000000000e+00
 3  1  2     0.0000000000e+00
 3  1  3     1.3844318656e+01
 3  2  1     0.0000000000e+00
 3  2  2     0.0000000000e+00
 3  2  3    -7.9930211027e+00
 3  3  1     1.1746862175e+01
 3  3  2    -6.7820540391e+00
 3  3  3     0.0000000000e+00

   19
0.0000000000e+00 0.0000000000e+00 0.0000000000e+00
3.6729208377e+00 -2.1205618344e+00 0.0000000000e+00
     1      1      3
 1  1  1     1.2525867187e-01
 1  1  2    -1.0199617949e+00
 1  1  3     0.0000000000e+00
 1  2  1    -8.1124523391e-01
 1  2  2     3.6240301064e-01
 1  2  3     0.0000000000e+00
 1  3  1     0.0000000000e+00
 1  3  2     0.0000000000e+00
 1  3  3    -2.0182738833e-02
 2  1  1    -8.1124523391e-01
 2  1  2     3.6240301064e-01
 2  1  3     0.0000000000e+00
 2  2  1    -1.1101677164e-01
 2  2  2     3.1484444191e-01
 2  2  3     0.0000000000e+00
 2  3  1     0.0000000000e+00
 2  3  2     0.0000000000e+00
 2  3  3     1.7604674904e-01
 3  1  1     0.0000000000e+00
 3  1  2     0.0000000000e+00
 3  1  3    -2.0182738833e-02
 3  2  1     0.0000000000e+00
 3  2  2     0.0000000000e+00
 3  2  3     1.7604674904e-01
 3  3  1    -2.2266964801e-01
 3  3  2    -4.5605824661e-02
 3  3  3     0.0000000000e+00

   20
0.0000000000e+00 0.0000000000e+00 0.0000000000e+00
-3.6729208377e+00 -2.1205618344e+00 0.0000000000e+00
     1      1      3
 1  1  1    -1.2525867187e-01
 1  1  2    -1.0199617949e+00
 1  1  3     0.0000000000e+00
 1  2  1    -8.1124523391e-01
 1  2  2    -3.6240301064e-01
 1  2  3     0.0000000000e+00
 1  3  1     0.0000000000e+00
 1  3  2     0.0000000000e+00
 1  3  3     2.0182738833e-02
 2  1  1    -8.1124523391e-01
 2  1  2    -3.6240301064e-01
 2  1  3     0.0000000000e+00
 2  2  1     1.1101677164e-01
 2  2  2     3.1484444191e-01
 2  2  3     0.0000000000e+00
 2  3  1     0.0000000000e+00
 2  3  2     0.0000000000e+00
 2  3  3     1.7604674904e-01
 3  1  1     0.0000000000e+00
 3  1  2     0.0000000000e+00
 3  1  3     2.0182738833e-02
 3  2  1     0.0000000000e+00
 3  2  2     0.0000000000e+00
 3  2  3     1.7604674904e-01
 3  3  1     2.2266964801e-01
 3  3  2    -4.5605824661e-02
 3  3  3     0.0000000000e+00

   21
0.0000000000e+00 0.0000000000e+00 0.0000000000e+00
-1.2243069459e+00 -2.1205618344e+00 0.0000000000e+00
     1      1      1
 1  1  1     5.7067269389e-02
 1  1  2     2.5827388587e+00
 1  1  3     0.0000000000e+00
 1  2  1     1.5041198519e+00
 1  2  2     6.6308636231e+00
 1  2  3     0.0000000000e+00
 1  3  1     0.0000000000e+00
 1  3  2     0.0000000000e+00
 1  3  3    -3.5273689028e-01
 2  1  1     1.5041198519e+00
 2  1  2     6.6308636231e+00
 2  1  3     0.0000000000e+00
 2  2  1     4.4494277939e+00
 2  2  2     4.3462810653e+00
 2  2  3     0.0000000000e+00
 2  3  1     0.0000000000e+00
 2  3  2     0.0000000000e+00
 2  3  3    -2.4997259578e+00
 3  1  1     0.0000000000e+00
 3  1  2     0.0000000000e+00
 3  1  3    -3.5273689028e-01
 3  2  1     0.0000000000e+00
 3  2  2     0.0000000000e+00
 3  2  3    -2.4997259578e+00
 3  3  1     6.9885186016e-01
 3  3  2     8.2426621780e-02
 3  3  3     0.0000000000e+00

   22
0.0000000000e+00 0.0000000000e+00 0.0000000000e+00
-1.2243069459e+00 -2.1205618344e+00 0.0000000000e+00
     1      1      3
 1  1  1     1.2001773327e+02
 1  1  2     8.2656633625e+01
 1  1  3     0.0000000000e+00
 1  2  1     8.1121803860e+01
 1  2  2     3.9119776711e+01
 1  2  3     0.0000000000e+00
 1  3  1     0.0000000000e+00
 1  3  2     0.0000000000e+00
 1  3  3    -1.3844318656e+01
 2  1  1     8.1121803860e+01
 2  1  2     3.9119776711e+01
 2  1  3     0.0000000000e+00
 2  2  1     4.1778179846e+01
 2  2  2     1.0756280365e+01
 2  2  3     0.0000000000e+00
 2  3  1     0.0000000000e+00
 2  3  2     0.0000000000e+00
 2  3  3    -7.9930211027e+00
 3  1  1     0.0000000000e+00
 3  1  2     0.0000000000e+00
 3  1  3    -1.3844318656e+01
 3  2  1     0.0000000000e+00
 3  2  2     0.0000000000e+00
 3  2  3    -7.9930211027e+00
 3  3  1    -1.1746862175e+01
 3  3  2    -6.7820540391e+00
 3  3  3     0.0000000000e+00

   23
0.0000000000e+00 0.0000000000e+00 0.0000000000e+00
-1.2243069459e+00 -2.1205618344e+00 0.0000000000e+00
     1      1      4
 1  1  1     0.0000000000e+00
 1  1  2    -3.1311649421e-03
 1  1  3     3.4081234011e-02
 1  2  1    -9.3512529220e-03
 1  2  2     0.0000000000e+00
 1  2  3     0.0000000000e+00
 1  3  1    -9.6653901180e-03
 1  3  2     0.0000000000e+00
 1  3  3     0.0000000000e+00
 2  1  1    -9.3512529220e-03
 2  1  2     0.0000000000e+00
 2  1  3     0.0000000000e+00
 2  2  1     0.0000000000e+00
 2  2  2     1.2664343508e-02
 2  2  3     3.9160824974e-02
 2  3  1     0.0000000000e+00
 2  3  2    -4.1119365936e-02
 2  3  3     3.6889436364e-02
 3  1  1    -9.6653901180e-03
 3  1  2     0.0000000000e+00
 3  1  3     0.0000000000e+00
 3  2  1     0.0000000000e+00
 3  2  2    -4.1119365936e-02
 3  2  3     3.6889436364e-02
 3  3  1     0.0000000000e+00
 3  3  2     1.7459927786e-01
 3  3  3    -1.2586396302e-01

   24
0.0000000000e+00 0.0000000000e+00 0.0000000000e+00
0.0000000000e+00 0.0000000000e+00 -6.6531781108e+00
     1      1      2
 1  1  1     0.0000000000e+00
 1  1  2     1.3498288387e-02
 1  1  3    -1.2134875901e-01
 1  2  1     1.3498288387e-02
 1  2  2     0.0000000000e+00
 1  2  3     0.0000000000e+00
 1  3  1    -4.4961686828e-02
 1  3  2     0.0000000000e+00
 1  3  3     0.0000000000e+00
 2  1  1     1.3498288387e-02
 2  1  2     0.0000000000e+00
 2  1  3     0.0000000000e+00
 2  2  1     0.0000000000e+00
 2  2  2    -1.3498288387e-02
 2  2  3    -1.2134875901e-01
 2  3  1     0.0000000000e+00
 2  3  2    -4.4961686828e-02
 2  3  3     0.0000000000e+00
 3  1  1    -4.4961686828e-02
 3  1  2     0.0000000000e+00
 3  1  3     0.0000000000e+00
 3  2  1     0.0000000000e+00
 3  2  2    -4.4961686828e-02
 3  2  3     0.0000000000e+00
 3  3  1     0.0000000000e+00
 3  3  2     0.0000000000e+00
 3  3  3    -3.4709894033e-02

   25
0.0000000000e+00 0.0000000000e+00 0.0000000000e+00
0.0000000000e+00 0.0000000000e+00 -6.6531781108e+00
     1      1      4
 1  1  1    -3.4986040103e-03
 1  1  2    -1.1371172889e-02
 1  1  3    -3.7890927233e-02
 1  2  1    -8.2611288992e-03
 1  2  2     6.2938339801e-04
 1  2  3    -2.1995274071e-03
 1  3  1     3.3255871981e-02
 1  3  2     1.3619971054e-02
 1  3  3    -3.1947189022e-02
 2  1  1    -8.2611288992e-03
 2  1  2     6.2938339801e-04
 2  1  3    -2.1995274071e-03
 2  2  1    -4.7573708064e-03
 2  2  2     6.6045836064e-03
 2  2  3    -3.5351131752e-02
 2  3  1     1.3619971054e-02
 2  3  2     1.7528884072e-02
 2  3  3    -1.8444718182e-02
 3  1  1     3.3255871981e-02
 3  1  2     1.3619971054e-02
 3  1  3    -3.1947189022e-02
 3  2  1     1.3619971054e-02
 3  2  2     1.7528884072e-02
 3  2  3    -1.8444718182e-02
 3  3  1    -1.5120741011e-01
 3  3  2    -8.7299638928e-02
 3  3  3     1.2586396302e-01

   26
0.0000000000e+00 0.0000000000e+00 0.0000000000e+00
-2.4486138918e+00 0.0000000000e+00 -6.6531781108e+00
     1      1      4
 1  1  1     3.4986040103e-03
 1  1  2    -1.1371172889e-02
 1  1  3    -3.7890927233e-02
 1  2  1    -8.2611288992e-03
 1  2  2    -6.2938339801e-04
 1  2  3     2.1995274071e-03
 1  3  1     3.3255871981e-02
 1  3  2    -1.3619971054e-02
 1  3  3     3.1947189022e-02
 2  1  1    -8.2611288992e-03
 2  1  2    -6.2938339801e-04
 2  1  3     2.1995274071e-03
 2  2  1     4.7573708064e-03
 2  2  2     6.6045836064e-03
 2  2  3    -3.5351131752e-02
 2  3  1    -1.3619971054e-02
 2  3  2     1.7528884072e-02
 2  3  3    -1.8444718182e-02
 3  1  1     3.3255871981e-02
 3  1  2    -1.3619971054e-02
 3  1  3     3.1947189022e-02
 3  2  1    -1.3619971054e-02
 3  2  2     1.7528884072e-02
 3  2  3    -1.8444718182e-02
 3  3  1     1.5120741011e-01
 3  3  2    -8.7299638928e-02
 3  3  3     1.2586396302e-01

   27
0.0000000000e+00 0.0000000000e+00 0.0000000000e+00
-1.2243069459e+00 -2.1205618344e+00 -6.6531781108e+00
     1      1      4
 1  1  1     0.0000000000e+00
 1  1  2    -3.1311649421e-03
 1  1  3    -3.4081234011e-02
 1  2  1    -9.3512529220e-03
 1  2  2     0.0000000000e+00
 1  2  3     0.0000000000e+00
 1  3  1     9.6653901180e-03
 1  3  2     0.0000000000e+00
 1  3  3     0.0000000000e+00
 2  1  1    -9.3512529220e-03
 2  1  2     0.0000000000e+00
 2  1  3     0.0000000000e+00
 2  2  1     0.0000000000e+00
 2  2  2     1.2664343508e-02
 2  2  3    -3.9160824974e-02
 2  3  1     0.0000000000e+00
 2  3  2     4.1119365936e-02
 2  3  3     3.6889436364e-02
 3  1  1     9.6653901180e-03
 3  1  2     0.0000000000e+00
 3  1  3     0.0000000000e+00
 3  2  1     0.0000000000e+00
 3  2  2     4.1119365936e-02
 3  2  3     3.6889436364e-02
 3  3  1     0.0000000000e+00
 3  3  2     1.7459927786e-01
 3  3  3     1.2586396302e-01

   28
0.0000000000e+00 0.0000000000e+00 0.0000000000e+00
0.0000000000e+00 0.0000000000e+00 0.0000000000e+00
     1      2      1
 1  1  1     0.0000000000e+00
 1  1  2     1.3498288387e-02
 1  1  3     4.4961686828e-02
 1  2  1     1.3498288387e-02
 1  2  2     0.0000000000e+00
 1  2  3     0.0000000000e+00
 1  3  1     1.2134875901e-01
 1  3  2     0.0000000000e+00
 1  3  3     0.0000000000e+00
 2  1  1     1.3498288387e-02
 2  1  2     0.0000000000e+00
 2  1  3     0.0000000000e+00
 2  2  1     0.0000000000e+00
 2  2  2    -1.3498288387e-02
 2  2  3     4.4961686828e-02
 2  3  1     0.0000000000e+00
 2  3  2     1.2134875901e-01
 2  3  3     0.0000000000e+00
 3  1  1     4.4961686828e-02
 3  1  2     0.0000000000e+00
 3  1  3     0.0000000000e+00
 3  2  1     0.0000000000e+00
 3  2  2     4.4961686828e-02
 3  2  3     0.0000000000e+00
 3  3  1     0.0000000000e+00
 3  3  2     0.0000000000e+00
 3  3  3     3.4709894033e-02

   29
0.0000000000e+00 0.0000000000e+00 0.0000000000e+00
0.0000000000e+00 0.0000000000e+00 0.0000000000e+00
     1      2      2
 1  1  1     0.0000000000e+00
 1  1  2    -1.3498288387e-02
 1  1  3    -4.4961686828e-02
 1  2  1    -1.3498288387e-02
 1  2  2     0.0000000000e+00
 1  2  3     0.0000000000e+00
 1  3  1    -4.4961686828e-02
 1  3  2     0.0000000000e+00
 1  3  3     0.0000000000e+00
 2  1  1    -1.3498288387e-02
 2  1  2     0.0000000000e+00
 2  1  3     0.0000000000e+00
 2  2  1     0.0000000000e+00
 2  2  2     1.3498288387e-02
 2  2  3    -4.4961686828e-02
 2  3  1     0.0000000000e+00
 2  3  2    -4.4961686828e-02
 2  3  3     0.0000000000e+00
 3  1  1    -1.2134875901e-01
 3  1  2     0.0000000000e+00
 3  1  3     0.0000000000e+00
 3  2  1     0.0000000000e+00
 3  2  2    -1.2134875901e-01
 3  2  3     0.0000000000e+00
 3  3  1     0.0000000000e+00
 3  3  2     0.0000000000e+00
 3  3  3    -3.4709894033e-02

   30
0.0000000000e+00 0.0000000000e+00 0.0000000000e+00
0.0000000000e+00 0.0000000000e+00 0.0000000000e+00
     1      2      3
 1  1  1     0.0000000000e+00
 1  1  2     1.5272943666e-02
 1  1  3    -2.1754749320e-02
 1  2  1    -9.7587382904e-03
 1  2  2     0.0000000000e+00
 1  2  3     0.0000000000e+00
 1  3  1     1.2325153755e-02
 1  3  2     0.0000000000e+00
 1  3  3     0.0000000000e+00
 2  1  1     4.6426908628e-03
 2  1  2     0.0000000000e+00
 2  1  3     0.0000000000e+00
 2  2  1     0.0000000000e+00
 2  2  2     4.4816432269e-02
 2  2  3    -1.0111739823e-02
 2  3  1     0.0000000000e+00
 2  3  2    -4.1648502909e-02
 2  3  3    -4.1682770072e-02
 3  1  1     8.4732627258e-03
 3  1  2     0.0000000000e+00
 3  1  3     0.0000000000e+00
 3  2  1     0.0000000000e+00
 3  2  2     5.6581445332e-03
 3  2  3    -5.1403879407e-03
 3  3  1     0.0000000000e+00
 3  3  2     1.1926779579e-01
 3  3  3    -1.2183189005e-01

   31
0.0000000000e+00 0.0000000000e+00 0.0000000000e+00
0.0000000000e+00 0.0000000000e+00 0.0000000000e+00
     1      2      4
 1  1  1     3.1308159180e-02
 1  1  2     2.0633797844e-02
 1  1  3     1.3022492197e-02
 1  2  1     1.5318671443e-02
 1  2  2    -9.4730559697e-04
 1  2  3    -5.0415710004e-03
 1  3  1    -6.3619240814e-03
 1  3  2     1.2189819347e-03
 1  3  3    -4.4517065420e-03
 2  1  1     8.1179568661e-03
 2  1  2     1.1524697900e-02
 2  1  3    -5.0415710004e-03
 2  2  1     2.0730766877e-02
 2  2  2     9.4108901232e-03
 2  2  3     1.8843996946e-02
 2  3  1     1.2189819347e-03
 2  3  2    -7.7694831777e-03
 2  3  3    -2.5701939704e-03
 3  1  1     2.8155088743e-02
 3  1  2     2.3371278903e-02
 3  1  3    -3.6098337782e-02
 3  2  1     2.3371278903e-02
 3  2  2     1.1682604111e-03
 3  2  3    -2.0841385036e-02
 3  3  1     1.0328894101e-01
 3  3  2     5.9633897894e-02
 3  3  3     1.2183189005e-01

   32
0.0000000000e+00 0.0000000000e+00 0.0000000000e+00
-2.4486138918e+00 0.0000000000e+00 0.0000000000e+00
     1      2      4
 1  1  1    -3.1308159180e-02
 1  1  2     2.0633797844e-02
 1  1  3     1.3022492197e-02
 1  2  1     1.5318671443e-02
 1  2  2     9.4730559697e-04
 1  2  3     5.0415710004e-03
 1  3  1    -6.3619240814e-03
 1  3  2    -1.2189819347e-03
 1  3  3     4.4517065420e-03
 2  1  1     8.1179568661e-03
 2  1  2    -1.1524697900e-02
 2  1  3     5.0415710004e-03
 2  2  1    -2.0730766877e-02
 2  2  2     9.4108901232e-03
 2  2  3     1.8843996946e-02
 2  3  1    -1.2189819347e-03
 2  3  2    -7.7694831777e-03
 2  3  3    -2.5701939704e-03
 3  1  1     2.8155088743e-02
 3  1  2    -2.3371278903e-02
 3  1  3     3.6098337782e-02
 3  2  1    -2.3371278903e-02
 3  2  2     1.1682604111e-03