   0.95094E+00   0.64358E-02   0.21927E-02   0.21927E-02
   0.19019E+01   0.72216E-02   0.25010E-02   0.25010E-02
   0.28528E+01   0.88744E-02   0.31216E-02   0.31216E-02
   0.38037E+01   0.88960E-02   0.31613E-02   0.31613E-02
   0.47547E+01   0.10676E-01   0.38387E-02   0.38387E-02
   0.57056E+01   0.11347E-01   0.41180E-02   0.41180E-02
   0.66565E+01   0.12069E-01   0.43954E-02   0.43954E-02
   0.76075E+01   0.12339E-01   0.45247E-02   0.45247E-02
   0.85584E+01   0.13406E-01   0.49244E-02   0.49244E-02
   0.95094E+01   0.14345E-01   0.52912E-02   0.52912E-02
   0.10460E+02   0.15304E-01   0.56716E-02   0.56716E-02
   0.11411E+02   0.16909E-01   0.62618E-02   0.62618E-02
   0.12362E+02   0.17936E-01   0.66774E-02   0.66774E-02
   0.13313E+02   0.19661E-01   0.73251E-02   0.73251E-02
   0.14264E+02   0.21304E-01   0.79416E-02   0.79416E-02
   0.15215E+02   0.22591E-01   0.84598E-02   0.84598E-02
   0.16166E+02   0.24679E-01   0.92213E-02   0.92213E-02
   0.17117E+02   0.26372E-01   0.98602E-02   0.98602E-02
   0.18068E+02   0.27787E-01   0.10410E-01   0.10410E-01
   0.19019E+02   0.29857E-01   0.11141E-01   0.11141E-01
   0.19970E+02   0.31180E-01   0.11623E-01   0.11623E-01
   0.20921E+02   0.31613E-01   0.11792E-01   0.11792E-01
   0.21872E+02   0.33844E-01   0.12551E-01   0.12551E-01
   0.22822E+02   0.39023E-01   0.14378E-01   0.14378E-01
   0.23773E+02   0.41742E-01   0.15313E-01   0.15313E-01
   0.24724E+02   0.44222E-01   0.16113E-01   0.16113E-01
   0.25675E+02   0.48507E-01   0.17486E-01   0.17486E-01
   0.26626E+02   0.56674E-01   0.20233E-01   0.20233E-01
   0.27577E+02   0.71815E-01   0.25541E-01   0.25541E-01
   0.28528E+02   0.89099E-01   0.31587E-01   0.31587E-01
   0.29479E+02   0.84650E-01   0.28723E-01   0.28723E-01
   0.30430E+02   0.88872E-01   0.28795E-01   0.28795E-01
   0.31381E+02   0.10873E+00   0.33498E-01   0.33498E-01
   0.32332E+02   0.11341E+00   0.33618E-01   0.33618E-01
   0.33283E+02   0.98212E-01   0.26569E-01   0.26569E-01
   0.34234E+02   0.19318E+00   0.33257E-01   0.33257E-01
   0.35185E+02   0.21093E-01   0.48758E-02   0.48758E-02
   0.36136E+02   0.23810E-01   0.53624E-02   0.53624E-02
   0.37086E+02   0.30616E-01   0.67765E-02   0.67765E-02
   0.38037E+02   0.39403E-01   0.87619E-02   0.87619E-02
   0.38988E+02   0.52798E-01   0.12522E-01   0.12522E-01
   0.39939E+02   0.68671E-01   0.17278E-01   0.17278E-01
   0.40890E+02   0.91879E-01   0.24373E-01   0.24373E-01
   0.41841E+02   0.93972E-01   0.23432E-01   0.23432E-01
   0.42792E+02   0.77613E-01   0.17126E-01   0.17126E-01
   0.43743E+02   0.00000E+00   0.00000E+00   0.00000E+00
   0.44694E+02   0.00000E+00   0.00000E+00   0.00000E+00
   0.45645E+02   0.00000E+00   0.00000E+00   0.00000E+00
   0.46596E+02   0.00000E+00   0.00000E+00   0.00000E+00
   0.47547E+02   0.00000E+00   0.00000E+00   0.00000E+00
   0.48498E+02   0.00000E+00   0.00000E+00   0.00000E+00
   0.49449E+02   0.00000E+00   0.00000E+00   0.00000E+00
   0.50400E+02   0.00000E+00   0.00000E+00   0.00000E+00
   0.51351E+02   0.00000E+00   0.00000E+00   0.00000E+00
   0.52301E+02   0.36936E-06   0.54869E-03   0.54869E-03
   0.53252E+02   0.17283E-03   0.58244E-01   0.58244E-01
   0.54203E+02   0.38699E-03   0.62725E-01   0.62725E-01
   0.55154E+02   0.81329E-03   0.84710E-01   0.84710E-01
   0.56105E+02   0.12521E-02   0.15290E+00   0.15290E+00
   0.57056E+02   0.19082E-02   0.85655E-01   0.85655E-01
   0.58007E+02   0.21187E-02   0.74101E-01   0.74101E-01
   0.58958E+02   0.20604E-02   0.17200E+00   0.17200E+00
   0.59909E+02   0.17072E-02   0.34947E-01   0.34947E-01
   0.60860E+02   0.62067E-02   0.28994E+00   0.28994E+00
   0.61811E+02   0.39553E-03   0.53440E-01   0.53440E-01
   0.62762E+02   0.17252E-02   0.54544E-01   0.54544E-01
   0.63713E+02   0.89671E-02   0.14496E+00   0.14496E+00
   0.64664E+02   0.20983E-01   0.20995E+00   0.20995E+00
   0.65615E+02   0.12353E-01   0.38646E-01   0.38646E-01
   0.66565E+02   0.97445E-02   0.22534E-01   0.22534E-01
   0.67516E+02   0.10528E+00   0.79758E-01   0.79758E-01
   0.68467E+02   0.19832E+00   0.13968E+00   0.13968E+00
   0.69418E+02   0.19444E+00   0.14085E+00   0.14085E+00
   0.70369E+02   0.14966E+00   0.11653E+00   0.11653E+00
   0.71320E+02   0.50258E-01   0.36392E-01   0.36392E-01
   0.72271E+02   0.55407E-01   0.65023E-01   0.65023E-01
   0.73222E+02   0.59393E-01   0.76078E-01   0.76078E-01
   0.74173E+02   0.82774E-01   0.11810E+00   0.11810E+00
   0.75124E+02   0.29122E+00   0.62300E+00   0.62300E+00
   0.76075E+02   0.16755E-01   0.11342E-01   0.11342E-01
   0.77026E+02   0.13958E-01   0.95097E-02   0.95097E-02
   0.77977E+02   0.14203E-01   0.97430E-02   0.97430E-02
   0.78928E+02   0.12922E-01   0.89381E-02   0.89381E-02
   0.79879E+02   0.11776E-01   0.82131E-02   0.82131E-02
   0.80830E+02   0.12343E-01   0.86883E-02   0.86883E-02
   0.81780E+02   0.11478E-01   0.81592E-02   0.81592E-02
   0.82731E+02   0.10542E-01   0.75697E-02   0.75697E-02
   0.83682E+02   0.10573E-01   0.76708E-02   0.76708E-02
   0.84633E+02   0.93454E-02   0.68493E-02   0.68493E-02
   0.85584E+02   0.81681E-02   0.60506E-02   0.60506E-02
   0.86535E+02   0.00000E+00   0.00000E+00   0.00000E+00
   0.87486E+02   0.00000E+00   0.00000E+00   0.00000E+00
   0.88437E+02   0.00000E+00   0.00000E+00   0.00000E+00
   0.89388E+02   0.00000E+00   0.00000E+00   0.00000E+00
   0.90339E+02   0.00000E+00   0.00000E+00   0.00000E+00
   0.91290E+02   0.00000E+00   0.00000E+00   0.00000E+00
   0.92241E+02   0.00000E+00   0.00000E+00   0.00000E+00
   0.93192E+02   0.00000E+00   0.00000E+00   0.00000E+00
   0.94143E+02   0.00000E+00   0.00000E+00   0.00000E+00
   0.95094E+02   0.00000E+00   0.00000E+00   0.00000E+00
