 1989

    1
0.0000000000e+00 0.0000000000e+00 0.0000000000e+00
0.0000000000e+00 0.0000000000e+00 0.0000000000e+00
     1      1      1
 1  1  1     1.8245962215e-08
 1  1  2    -1.6766613449e+01
 1  1  3     0.0000000000e+00
 1  2  1    -1.6766613449e+01
 1  2  2    -6.0819874125e-09
 1  2  3     0.0000000000e+00
 1  3  1     0.0000000000e+00
 1  3  2     0.0000000000e+00
 1  3  3     0.0000000000e+00
 2  1  1    -1.6766613449e+01
 2  1  2    -6.0819874125e-09
 2  1  3     0.0000000000e+00
 2  2  1    -6.0819874125e-09
 2  2  2     1.6766613470e+01
 2  2  3     0.0000000000e+00
 2  3  1     0.0000000000e+00
 2  3  2     0.0000000000e+00
 2  3  3     0.0000000000e+00
 3  1  1     0.0000000000e+00
 3  1  2     0.0000000000e+00
 3  1  3     0.0000000000e+00
 3  2  1     0.0000000000e+00
 3  2  2     0.0000000000e+00
 3  2  3     0.0000000000e+00
 3  3  1     0.0000000000e+00
 3  3  2     0.0000000000e+00
 3  3  3     0.0000000000e+00

    2
0.0000000000e+00 0.0000000000e+00 0.0000000000e+00
0.0000000000e+00 0.0000000000e+00 0.0000000000e+00
     1      1      2
 1  1  1    -9.1290872667e+00
 1  1  2     5.1253472424e+00
 1  1  3    -1.0181783599e+01
 1  2  1     3.7364007095e+00
 1  2  2    -2.2411204364e+00
 1  2  3     4.6543296778e+00
 1  3  1    -1.0344767035e+01
 1  3  2     6.0387411439e+00
 1  3  3    -9.5076042437e+00
 2  1  1     3.7364007095e+00
 2  1  2    -2.2411204364e+00
 2  1  3     4.6543296778e+00
 2  2  1    -4.6468464034e+00
 2  2  2     2.8281917737e+00
 2  2  3    -4.8074266222e+00
 2  3  1     6.0387411439e+00
 2  3  2    -3.3718293899e+00
 2  3  3     5.4892178716e+00
 3  1  1    -1.0344767035e+01
 3  1  2     6.0387411439e+00
 3  1  3    -9.5076042437e+00
 3  2  1     6.0387411439e+00
 3  2  2    -3.3718293899e+00
 3  2  3     5.4892178716e+00
 3  3  1    -9.6983772960e+00
 3  3  2     5.5993607448e+00
 3  3  3    -9.7547816321e+00

    3
0.0000000000e+00 0.0000000000e+00 0.0000000000e+00
0.0000000000e+00 0.0000000000e+00 0.0000000000e+00
     1      1      3
 1  1  1    -9.1290872667e+00
 1  1  2     5.1253472424e+00
 1  1  3     1.0181783599e+01
 1  2  1     3.7364007095e+00
 1  2  2    -2.2411204364e+00
 1  2  3    -4.6543296778e+00
 1  3  1     1.0344767035e+01
 1  3  2    -6.0387411439e+00
 1  3  3    -9.5076042437e+00
 2  1  1     3.7364007095e+00
 2  1  2    -2.2411204364e+00
 2  1  3    -4.6543296778e+00
 2  2  1    -4.6468464034e+00
 2  2  2     2.8281917737e+00
 2  2  3     4.8074266222e+00
 2  3  1    -6.0387411439e+00
 2  3  2     3.3718293899e+00
 2  3  3     5.4892178716e+00
 3  1  1     1.0344767035e+01
 3  1  2    -6.0387411439e+00
 3  1  3    -9.5076042437e+00
 3  2  1    -6.0387411439e+00
 3  2  2     3.3718293899e+00
 3  2  3     5.4892178716e+00
 3  3  1    -9.6983772960e+00
 3  3  2     5.5993607448e+00
 3  3  3     9.7547816321e+00

    4
0.0000000000e+00 0.0000000000e+00 0.0000000000e+00
3.1832375220e+00 0.0000000000e+00 0.0000000000e+00
     1      1      1
 1  1  1    -6.6109492616e+00
 1  1  2     2.7588415049e+00
 1  1  3     0.0000000000e+00
 1  2  1     2.8905059473e-01
 1  2  2    -3.2373994756e-01
 1  2  3     0.0000000000e+00
 1  3  1     0.0000000000e+00
 1  3  2     0.0000000000e+00
 1  3  3    -8.5222102969e-01
 2  1  1     2.8905059473e-01
 2  1  2    -3.2373994756e-01
 2  1  3     0.0000000000e+00
 2  2  1     4.5717700834e-01
 2  2  2     2.9131062806e-01
 2  2  3     0.0000000000e+00
 2  3  1     0.0000000000e+00
 2  3  2     0.0000000000e+00
 2  3  3    -1.3347957157e+00
 3  1  1     0.0000000000e+00
 3  1  2     0.0000000000e+00
 3  1  3    -8.5222102969e-01
 3  2  1     0.0000000000e+00
 3  2  2     0.0000000000e+00
 3  2  3    -1.3347957157e+00
 3  3  1    -1.8431854437e+00
 3  3  2    -1.0999535589e+00
 3  3  3     0.0000000000e+00

    5
0.0000000000e+00 0.0000000000e+00 0.0000000000e+00
3.1832375220e+00 0.0000000000e+00 0.0000000000e+00
     1      1      2
 1  1  1    -1.9318610384e-02
 1  1  2    -1.1277429468e-01
 1  1  3     7.0686968980e-02
 1  2  1     2.0019764979e-02
 1  2  2     3.6068437403e-02
 1  2  3     5.5258918210e-02
 1  3  1    -1.0214669310e-01
 1  3  2     8.4924164763e-02
 1  3  3    -1.0452988439e-02
 2  1  1     2.0019764979e-02
 2  1  2     3.6068437403e-02
 2  1  3     5.5258918210e-02
 2  2  1     4.9206451869e-02
 2  2  2     2.4937206613e-02
 2  2  3     1.1981113021e-01
 2  3  1    -6.0042344081e-02
 2  3  2    -7.4105353323e-02
 2  3  3     1.7852461590e-01
 3  1  1    -1.0214669310e-01
 3  1  2     8.4924164763e-02
 3  1  3    -1.0452988439e-02
 3  2  1    -6.0042344081e-02
 3  2  2    -7.4105353323e-02
 3  2  3     1.7852461590e-01
 3  3  1     1.6932697460e-01
 3  3  2     7.3547447572e-02
 3  3  3    -1.5971611396e-01

    6
0.0000000000e+00 0.0000000000e+00 0.0000000000e+00
3.1832375220e+00 0.0000000000e+00 0.0000000000e+00
     1      1      3
 1  1  1    -1.9318610384e-02
 1  1  2    -1.1277429468e-01
 1  1  3    -7.0686968980e-02
 1  2  1     2.0019764979e-02
 1  2  2     3.6068437403e-02
 1  2  3    -5.5258918210e-02
 1  3  1     1.0214669310e-01
 1  3  2    -8.4924164763e-02
 1  3  3    -1.0452988439e-02
 2  1  1     2.0019764979e-02
 2  1  2     3.6068437403e-02
 2  1  3    -5.5258918210e-02
 2  2  1     4.9206451869e-02
 2  2  2     2.4937206613e-02
 2  2  3    -1.1981113021e-01
 2  3  1     6.0042344081e-02
 2  3  2     7.4105353323e-02
 2  3  3     1.7852461590e-01
 3  1  1     1.0214669310e-01
 3  1  2    -8.4924164763e-02
 3  1  3    -1.0452988439e-02
 3  2  1     6.0042344081e-02
 3  2  2     7.4105353323e-02
 3  2  3     1.7852461590e-01
 3  3  1     1.6932697460e-01
 3  3  2     7.3547447572e-02
 3  3  3     1.5971611396e-01

    7
0.0000000000e+00 0.0000000000e+00 0.0000000000e+00
-6.3664750440e+00 0.0000000000e+00 0.0000000000e+00
     1      1      2
 1  1  1     1.9318610437e-02
 1  1  2    -1.1277429463e-01
 1  1  3     7.0686969060e-02
 1  2  1     2.0019765040e-02
 1  2  2    -3.6068437421e-02
 1  2  3    -5.5258918297e-02
 1  3  1    -1.0214669308e-01
 1  3  2    -8.4924164709e-02
 1  3  3     1.0452988310e-02
 2  1  1     2.0019765040e-02
 2  1  2    -3.6068437421e-02
 2  1  3    -5.5258918297e-02
 2  2  1    -4.9206451887e-02
 2  2  2     2.4937206613e-02
 2  2  3     1.1981113021e-01
 2  3  1     6.0042344135e-02
 2  3  2    -7.4105353323e-02
 2  3  3     1.7852461590e-01
 3  1  1    -1.0214669308e-01
 3  1  2    -8.4924164709e-02
 3  1  3     1.0452988310e-02
 3  2  1     6.0042344135e-02
 3  2  2    -7.4105353323e-02
 3  2  3     1.7852461590e-01
 3  3  1    -1.6932697465e-01
 3  3  2     7.3547447572e-02
 3  3  3    -1.5971611396e-01

    8
0.0000000000e+00 0.0000000000e+00 0.0000000000e+00
-6.3664750440e+00 0.0000000000e+00 0.0000000000e+00
     1      1      3
 1  1  1     1.9318610437e-02
 1  1  2    -1.1277429463e-01
 1  1  3    -7.0686969060e-02
 1  2  1     2.0019765040e-02
 1  2  2    -3.6068437421e-02
 1  2  3     5.5258918297e-02
 1  3  1     1.0214669308e-01
 1  3  2     8.4924164709e-02
 1  3  3     1.0452988310e-02
 2  1  1     2.0019765040e-02
 2  1  2    -3.6068437421e-02
 2  1  3     5.5258918297e-02
 2  2  1    -4.9206451887e-02
 2  2  2     2.4937206613e-02
 2  2  3    -1.1981113021e-01
 2  3  1    -6.0042344135e-02
 2  3  2     7.4105353323e-02
 2  3  3     1.7852461590e-01
 3  1  1     1.0214669308e-01
 3  1  2     8.4924164709e-02
 3  1  3     1.0452988310e-02
 3  2  1    -6.0042344135e-02
 3  2  2     7.4105353323e-02
 3  2  3     1.7852461590e-01
 3  3  1    -1.6932697465e-01
 3  3  2     7.3547447572e-02
 3  3  3     1.5971611396e-01

    9
0.0000000000e+00 0.0000000000e+00 0.0000000000e+00
-3.1832375220e+00 0.0000000000e+00 0.0000000000e+00
     1      1      1
 1  1  1     6.6109492592e+00
 1  1  2     2.7588415044e+00
 1  1  3     0.0000000000e+00
 1  2  1     2.8905059482e-01
 1  2  2     3.2373994735e-01
 1  2  3     0.0000000000e+00
 1  3  1     0.0000000000e+00
 1  3  2     0.0000000000e+00
 1  3  3     8.5222103065e-01
 2  1  1     2.8905059482e-01
 2  1  2     3.2373994735e-01
 2  1  3     0.0000000000e+00
 2  2  1    -4.5717700856e-01
 2  2  2     2.9131062806e-01
 2  2  3     0.0000000000e+00
 2  3  1     0.0000000000e+00
 2  3  2     0.0000000000e+00
 2  3  3    -1.3347957157e+00
 3  1  1     0.0000000000e+00
 3  1  2     0.0000000000e+00
 3  1  3     8.5222103065e-01
 3  2  1     0.0000000000e+00
 3  2  2     0.0000000000e+00
 3  2  3    -1.3347957157e+00
 3  3  1     1.8431854445e+00
 3  3  2    -1.0999535589e+00
 3  3  3     0.0000000000e+00

   10
0.0000000000e+00 0.0000000000e+00 0.0000000000e+00
-3.1832375220e+00 0.0000000000e+00 0.0000000000e+00
     1      1      2
 1  1  1     9.1290872575e+00
 1  1  2     5.1253472391e+00
 1  1  3    -1.0181783593e+01
 1  2  1     3.7364007045e+00
 1  2  2     2.2411204344e+00
 1  2  3    -4.6543296743e+00
 1  3  1    -1.0344767026e+01
 1  3  2    -6.0387411414e+00
 1  3  3     9.5076042397e+00
 2  1  1     3.7364007045e+00
 2  1  2     2.2411204344e+00
 2  1  3    -4.6543296743e+00
 2  2  1     4.6468464013e+00
 2  2  2     2.8281917737e+00
 2  2  3    -4.8074266222e+00
 2  3  1    -6.0387411414e+00
 2  3  2    -3.3718293899e+00
 2  3  3     5.4892178716e+00
 3  1  1    -1.0344767026e+01
 3  1  2    -6.0387411414e+00
 3  1  3     9.5076042397e+00
 3  2  1    -6.0387411414e+00
 3  2  2    -3.3718293899e+00
 3  2  3     5.4892178716e+00
 3  3  1     9.6983772920e+00
 3  3  2     5.5993607448e+00
 3  3  3    -9.7547816321e+00

   11
0.0000000000e+00 0.0000000000e+00 0.0000000000e+00
-3.1832375220e+00 0.0000000000e+00 0.0000000000e+00
     1      1      3
 1  1  1     9.1290872575e+00
 1  1  2     5.1253472391e+00
 1  1  3     1.0181783593e+01
 1  2  1     3.7364007045e+00
 1  2  2     2.2411204344e+00
 1  2  3     4.6543296743e+00
 1  3  1     1.0344767026e+01
 1  3  2     6.0387411414e+00
 1  3  3     9.5076042397e+00
 2  1  1     3.7364007045e+00
 2  1  2     2.2411204344e+00
 2  1  3     4.6543296743e+00
 2  2  1     4.6468464013e+00
 2  2  2     2.8281917737e+00
 2  2  3     4.8074266222e+00
 2  3  1     6.0387411414e+00
 2  3  2     3.3718293899e+00
 2  3  3     5.4892178716e+00
 3  1  1     1.0344767026e+01
 3  1  2     6.0387411414e+00
 3  1  3     9.5076042397e+00
 3  2  1     6.0387411414e+00
 3  2  2     3.3718293899e+00
 3  2  3     5.4892178716e+00
 3  3  1     9.6983772920e+00
 3  3  2     5.5993607448e+00
 3  3  3     9.7547816321e+00

   12
0.0000000000e+00 0.0000000000e+00 0.0000000000e+00
-1.5916187620e+00 2.7567645620e+00 0.0000000000e+00
     1      1      1
 1  1  1    -1.3948847657e-02
 1  1  2    -1.2314925445e+00
 1  1  3     0.0000000000e+00
 1  2  1    -6.7289101026e-01
 1  2  2     2.9786858962e+00
 1  2  3     0.0000000000e+00
 1  3  1     0.0000000000e+00
 1  3  2     0.0000000000e+00
 1  3  3     1.5820775131e+00
 2  1  1    -6.7289101026e-01
 2  1  2     2.9786858962e+00
 2  1  3     0.0000000000e+00
 2  2  1     4.4932574699e-01
 2  2  2    -5.6229066336e+00
 2  2  3     0.0000000000e+00
 2  3  1     0.0000000000e+00
 2  3  2     0.0000000000e+00
 2  3  3    -7.0647204369e-02
 3  1  1     0.0000000000e+00
 3  1  2     0.0000000000e+00
 3  1  3     1.5820775131e+00
 3  2  1     0.0000000000e+00
 3  2  2     0.0000000000e+00
 3  2  3    -7.0647204369e-02
 3  3  1     1.8741804468e+00
 3  3  2    -1.0462686400e+00
 3  3  3     0.0000000000e+00

   13
0.0000000000e+00 0.0000000000e+00 0.0000000000e+00
-1.5916187620e+00 2.7567645620e+00 0.0000000000e+00
     1      1      2
 1  1  1     1.1658207741e-09
 1  1  2    -2.9232268182e+00
 1  1  3    -2.1202481267e+00
 1  2  1    -1.4533375066e-01
 1  2  2     4.7098143117e-09
 1  2  3     4.6681395337e-09
 1  3  1     1.1463943640e-01
 1  3  2     5.0171987860e-09
 1  3  3     3.9823623212e-09
 2  1  1    -1.4533375066e-01
 2  1  2     4.7098140925e-09
 2  1  3     4.6681395337e-09
 2  2  1     4.7098143380e-09
 2  2  2    -1.2983851220e+01
 2  2  3    -1.2868962101e+01
 2  3  1     5.0171992888e-09
 2  3  2    -1.3831235869e+01
 2  3  3    -1.0978435743e+01
 3  1  1     1.1463943640e-01
 3  1  2     5.0171987860e-09
 3  1  3     3.9823623212e-09
 3  2  1     5.0171987860e-09
 3  2  2    -1.3831235869e+01
 3  2  3    -1.0978435743e+01
 3  3  1     4.0622696665e-09
 3  3  2    -1.1198721490e+01
 3  3  3    -9.7547816321e+00

   14
0.0000000000e+00 0.0000000000e+00 0.0000000000e+00
-1.5916187620e+00 2.7567645620e+00 0.0000000000e+00
     1      1      3
 1  1  1     1.1658207741e-09
 1  1  2    -2.9232268182e+00
 1  1  3     2.1202481267e+00
 1  2  1    -1.4533375066e-01
 1  2  2     4.7098143117e-09
 1  2  3    -4.6681395337e-09
 1  3  1    -1.1463943640e-01
 1  3  2    -5.0171987860e-09
 1  3  3     3.9823623212e-09
 2  1  1    -1.4533375066e-01
 2  1  2     4.7098140925e-09
 2  1  3    -4.6681395337e-09
 2  2  1     4.7098143380e-09
 2  2  2    -1.2983851220e+01
 2  2  3     1.2868962101e+01
 2  3  1    -5.0171992888e-09
 2  3  2     1.3831235869e+01
 2  3  3    -1.0978435743e+01
 3  1  1    -1.1463943640e-01
 3  1  2    -5.0171987860e-09
 3  1  3     3.9823623212e-09
 3  2  1    -5.0171987860e-09
 3  2  2     1.3831235869e+01
 3  2  3    -1.0978435743e+01
 3  3  1     4.0622696665e-09
 3  3  2    -1.1198721490e+01
 3  3  3     9.7547816321e+00

   15
0.0000000000e+00 0.0000000000e+00 0.0000000000e+00
1.5916187600e+00 2.7567645620e+00 0.0000000000e+00
     1      1      1
 1  1  1     1.3948849527e-02
 1  1  2    -1.2314925401e+00
 1  1  3     0.0000000000e+00
 1  2  1    -6.7289100778e-01
 1  2  2    -2.9786858921e+00
 1  2  3     0.0000000000e+00
 1  3  1     0.0000000000e+00
 1  3  2     0.0000000000e+00
 1  3  3    -1.5820775130e+00
 2  1  1    -6.7289100778e-01
 2  1  2    -2.9786858921e+00
 2  1  3     0.0000000000e+00
 2  2  1    -4.4932574291e-01
 2  2  2    -5.6229066336e+00
 2  2  3     0.0000000000e+00
 2  3  1     0.0000000000e+00
 2  3  2     0.0000000000e+00
 2  3  3    -7.0647204369e-02
 3  1  1     0.0000000000e+00
 3  1  2     0.0000000000e+00
 3  1  3    -1.5820775130e+00
 3  2  1     0.0000000000e+00
 3  2  2     0.0000000000e+00
 3  2  3    -7.0647204369e-02
 3  3  1    -1.8741804461e+00
 3  3  2    -1.0462686400e+00
 3  3  3     0.0000000000e+00

   16
0.0000000000e+00 0.0000000000e+00 0.0000000000e+00
1.5916187600e+00 2.7567645620e+00 0.0000000000e+00
     1      1      2
 1  1  1     2.1136098789e-01
 1  1  2    -3.0252206787e-01
 1  1  3    -2.2188231037e-01
 1  2  1    -2.1066444361e-01
 1  2  2     1.2348768657e-01
 1  2  3    -5.3068624394e-02
 1  3  1    -3.5540019917e-01
 1  3  2    -4.8846223366e-02
 1  3  3     3.4910274264e-02
 2  1  1    -2.1066444361e-01
 2  1  2     1.2348768657e-01
 2  1  3    -5.3068624394e-02
 2  2  1    -3.5614385703e-02
 2  2  2     4.0398941637e-01
 2  2  3    -1.6060394142e-01
 2  3  1    -4.8846223366e-02
 2  3  2    -2.9899743906e-01
 2  3  3     2.0155456260e-02
 3  1  1    -3.5540019917e-01
 3  1  2    -4.8846223366e-02
 3  1  3     3.4910274264e-02
 3  2  1    -4.8846223366e-02
 3  2  2    -2.9899743906e-01
 3  2  3     2.0155456260e-02
 3  3  1    -8.2077755796e-02
 3  3  2    -4.7387614442e-02
 3  3  3    -3.0183800566e-02

   17
0.0000000000e+00 0.0000000000e+00 0.0000000000e+00
1.5916187600e+00 2.7567645620e+00 0.0000000000e+00
     1      1      3
 1  1  1     2.1136098789e-01
 1  1  2    -3.0252206787e-01
 1  1  3     2.2188231037e-01
 1  2  1    -2.1066444361e-01
 1  2  2     1.2348768657e-01
 1  2  3     5.3068624394e-02
 1  3  1     3.5540019917e-01
 1  3  2     4.8846223366e-02
 1  3  3     3.4910274264e-02
 2  1  1    -2.1066444361e-01
 2  1  2     1.2348768657e-01
 2  1  3     5.3068624394e-02
 2  2  1    -3.5614385703e-02
 2  2  2     4.0398941637e-01
 2  2  3     1.6060394142e-01
 2  3  1     4.8846223366e-02
 2  3  2     2.9899743906e-01
 2  3  3     2.0155456260e-02
 3  1  1     3.5540019917e-01
 3  1  2     4.8846223366e-02
 3  1  3     3.4910274264e-02
 3  2  1     4.8846223366e-02
 3  2  2     2.9899743906e-01
 3  2  3     2.0155456260e-02
 3  3  1    -8.2077755796e-02
 3  3  2    -4.7387614442e-02
 3  3  3     3.0183800566e-02

   18
0.0000000000e+00 0.0000000000e+00 0.0000000000e+00
4.7748562820e+00 2.7567645620e+00 0.0000000000e+00
     1      1      1
 1  1  1     5.2800949115e-02
 1  1  2     1.0242672947e-01
 1  1  3     0.0000000000e+00
 1  2  1    -5.3711487578e-02
 1  2  2    -7.2546125266e-02
 1  2  3     0.0000000000e+00
 1  3  1     0.0000000000e+00
 1  3  2     0.0000000000e+00
 1  3  3    -6.1915556200e-02
 2  1  1    -5.3711487578e-02
 2  1  2    -7.2546125266e-02
 2  1  3     0.0000000000e+00
 2  2  1     1.9789319966e-01
 2  2  2     4.2311604869e-02
 2  2  3     0.0000000000e+00
 2  3  1     0.0000000000e+00
 2  3  2     0.0000000000e+00
 2  3  3    -3.5746963068e-02
 3  1  1     0.0000000000e+00
 3  1  2     0.0000000000e+00
 3  1  3    -6.1915556200e-02
 3  2  1     0.0000000000e+00
 3  2  2     0.0000000000e+00
 3  2  3    -3.5746963068e-02
 3  3  1    -1.8352755700e-02
 3  3  2    -1.0595968452e-02
 3  3  3     0.0000000000e+00

   19
0.0000000000e+00 0.0000000000e+00 0.0000000000e+00
-4.7748562840e+00 2.7567645620e+00 0.0000000000e+00
     1      1      1
 1  1  1    -5.2800949111e-02
 1  1  2     1.0242672937e-01
 1  1  3     0.0000000000e+00
 1  2  1    -5.3711487487e-02
 1  2  2     7.2546125235e-02
 1  2  3     0.0000000000e+00
 1  3  1     0.0000000000e+00
 1  3  2     0.0000000000e+00
 1  3  3     6.1915556226e-02
 2  1  1    -5.3711487487e-02
 2  1  2     7.2546125235e-02
 2  1  3     0.0000000000e+00
 2  2  1    -1.9789319969e-01
 2  2  2     4.2311604869e-02
 2  2  3     0.0000000000e+00
 2  3  1     0.0000000000e+00
 2  3  2     0.0000000000e+00
 2  3  3    -3.5746963068e-02
 3  1  1     0.0000000000e+00
 3  1  2     0.0000000000e+00
 3  1  3     6.1915556226e-02
 3  2  1     0.0000000000e+00
 3  2  2     0.0000000000e+00
 3  2  3    -3.5746963068e-02
 3  3  1     1.8352755708e-02
 3  3  2    -1.0595968452e-02
 3  3  3     0.0000000000e+00

   20
0.0000000000e+00 0.0000000000e+00 0.0000000000e+00
-4.7748562840e+00 2.7567645620e+00 0.0000000000e+00
     1      1      2
 1  1  1    -2.1136098736e-01
 1  1  2    -3.0252206769e-01
 1  1  3    -2.2188231045e-01
 1  2  1    -2.1066444354e-01
 1  2  2    -1.2348768687e-01
 1  2  3     5.3068624511e-02
 1  3  1    -3.5540019924e-01
 1  3  2     4.8846223583e-02
 1  3  3    -3.4910274279e-02
 2  1  1    -2.1066444354e-01
 2  1  2    -1.2348768687e-01
 2  1  3     5.3068624511e-02
 2  2  1     3.5614385410e-02
 2  2  2     4.0398941637e-01
 2  2  3    -1.6060394142e-01
 2  3  1     4.8846223583e-02
 2  3  2    -2.9899743906e-01
 2  3  3     2.0155456260e-02
 3  1  1    -3.5540019924e-01
 3  1  2     4.8846223583e-02
 3  1  3    -3.4910274279e-02
 3  2  1     4.8846223583e-02
 3  2  2    -2.9899743906e-01
 3  2  3     2.0155456260e-02
 3  3  1     8.2077755830e-02
 3  3  2    -4.7387614442e-02
 3  3  3    -3.0183800566e-02

   21
0.0000000000e+00 0.0000000000e+00 0.0000000000e+00
-4.7748562840e+00 2.7567645620e+00 0.0000000000e+00
     1      1      3
 1  1  1    -2.1136098736e-01
 1  1  2    -3.0252206769e-01
 1  1  3     2.2188231045e-01
 1  2  1    -2.1066444354e-01
 1  2  2    -1.2348768687e-01
 1  2  3    -5.3068624511e-02
 1  3  1     3.5540019924e-01
 1  3  2    -4.8846223583e-02
 1  3  3    -3.4910274279e-02
 2  1  1    -2.1066444354e-01
 2  1  2    -1.2348768687e-01
 2  1  3    -5.3068624511e-02
 2  2  1     3.5614385410e-02
 2  2  2     4.0398941637e-01
 2  2  3     1.6060394142e-01
 2  3  1    -4.8846223583e-02
 2  3  2     2.9899743906e-01
 2  3  3     2.0155456260e-02
 3  1  1     3.5540019924e-01
 3  1  2    -4.8846223583e-02
 3  1  3    -3.4910274279e-02
 3  2  1    -4.8846223583e-02
 3  2  2     2.9899743906e-01
 3  2  3     2.0155456260e-02
 3  3  1     8.2077755830e-02
 3  3  2    -4.7387614442e-02
 3  3  3     3.0183800566e-02

   22
0.0000000000e+00 0.0000000000e+00 0.0000000000e+00
-3.1832375240e+00 5.5135291240e+00 0.0000000000e+00
     1      1      2
 1  1  1    -4.3538573458e-02
 1  1  2     3.1919992746e-02
 1  1  3     1.5538571677e-01
 1  2  1    -4.5854891401e-02
 1  2  2    -3.7702194705e-03
 1  2  3    -6.3580734239e-03
 1  3  1    -7.0341543830e-02
 1  3  2     7.8405055645e-02
 1  3  3    -1.4938035826e-01
 2  1  1    -4.5854891401e-02
 2  1  2    -3.7702194705e-03
 2  1  3    -6.3580734239e-03
 2  2  1     1.0466380250e-01
 2  2  2     3.7882181276e-02
 2  2  3     3.5112382360e-02
 2  3  1    -6.6561453199e-02
 2  3  2    -1.0591050262e-01
 2  3  3    -9.8314861435e-02
 3  1  1    -7.0341543830e-02
 3  1  2     7.8405055645e-02
 3  1  3    -1.4938035826e-01
 3  2  1    -6.6561453199e-02
 3  2  2    -1.0591050262e-01
 3  2  3    -9.8314861435e-02
 3  3  1    -1.4835744529e-01
 3  3  2     1.0986773787e-01
 3  3  3    -1.5971611396e-01

   23
0.0000000000e+00 0.0000000000e+00 0.0000000000e+00
-3.1832375240e+00 5.5135291240e+00 0.0000000000e+00
     1      1      3
 1  1  1    -4.3538573458e-02
 1  1  2     3.1919992746e-02
 1  1  3    -1.5538571677e-01
 1  2  1    -4.5854891401e-02
 1  2  2    -3.7702194705e-03
 1  2  3     6.3580734239e-03
 1  3  1     7.0341543830e-02
 1  3  2    -7.8405055645e-02
 1  3  3    -1.4938035826e-01
 2  1  1    -4.5854891401e-02
 2  1  2    -3.7702194705e-03
 2  1  3     6.3580734239e-03
 2  2  1     1.0466380250e-01
 2  2  2     3.7882181276e-02
 2  2  3    -3.5112382360e-02
 2  3  1     6.6561453199e-02
 2  3  2     1.0591050262e-01
 2  3  3    -9.8314861435e-02
 3  1  1     7.0341543830e-02
 3  1  2    -7.8405055645e-02
 3  1  3    -1.4938035826e-01
 3  2  1     6.6561453199e-02
 3  2  2     1.0591050262e-01
 3  2  3    -9.8314861435e-02
 3  3  1    -1.4835744529e-01
 3  3  2     1.0986773787e-01
 3  3  3     1.5971611396e-01

   24
0.0000000000e+00 0.0000000000e+00 0.0000000000e+00
-2.0000001655e-09 5.5135291240e+00 0.0000000000e+00
     1      1      1
 1  1  1     1.8600894325e-10
 1  1  2    -1.1861479553e-01
 1  1  3     0.0000000000e+00
 1  2  1    -1.9708412707e-01
 1  2  2    -2.5452691976e-11
 1  2  3     0.0000000000e+00
 1  3  1     0.0000000000e+00
 1  3  2     0.0000000000e+00
 1  3  3    -1.4204635085e-11
 2  1  1    -1.9708412707e-01
 2  1  2    -2.5452691976e-11
 2  1  3     0.0000000000e+00
 2  2  1    -2.5452691976e-11
 2  2  2     7.0167104792e-02
 2  2  3     0.0000000000e+00
 2  3  1     0.0000000000e+00
 2  3  2     0.0000000000e+00
 2  3  3     3.9158848876e-02
 3  1  1     0.0000000000e+00
 3  1  2     0.0000000000e+00
 3  1  3    -1.4204635085e-11
 3  2  1     0.0000000000e+00
 3  2  2     0.0000000000e+00
 3  2  3     3.9158848876e-02
 3  3  1     3.4039842308e-11
 3  3  2    -9.3839865135e-02
 3  3  3     0.0000000000e+00

   25
0.0000000000e+00 0.0000000000e+00 0.0000000000e+00
-1.9999996104e-09 5.5135291240e+00 0.0000000000e+00
     1      1      2
 1  1  1     4.3538573501e-02
 1  1  2     3.1919992740e-02
 1  1  3     1.5538571676e-01
 1  2  1    -4.5854891327e-02
 1  2  2     3.7702194431e-03
 1  2  3     6.3580733984e-03
 1  3  1    -7.0341543821e-02
 1  3  2    -7.8405055569e-02
 1  3  3     1.4938035833e-01
 2  1  1    -4.5854891327e-02
 2  1  2     3.7702194431e-03
 2  1  3     6.3580733984e-03
 2  2  1    -1.0466380253e-01
 2  2  2     3.7882181276e-02
 2  2  3     3.5112382360e-02
 2  3  1     6.6561453275e-02
 2  3  2    -1.0591050262e-01
 2  3  3    -9.8314861435e-02
 3  1  1    -7.0341543821e-02
 3  1  2    -7.8405055569e-02
 3  1  3     1.4938035833e-01
 3  2  1     6.6561453275e-02
 3  2  2    -1.0591050262e-01
 3  2  3    -9.8314861435e-02
 3  3  1     1.4835744521e-01
 3  3  2     1.0986773787e-01
 3  3  3    -1.5971611396e-01

   26
0.0000000000e+00 0.0000000000e+00 0.0000000000e+00
-1.9999996104e-09 5.5135291240e+00 0.0000000000e+00
     1      1      3
 1  1  1     4.3538573501e-02
 1  1  2     3.1919992740e-02
 1  1  3    -1.5538571676e-01
 1  2  1    -4.5854891327e-02
 1  2  2     3.7702194431e-03
 1  2  3    -6.3580733984e-03
 1  3  1     7.0341543821e-02
 1  3  2     7.8405055569e-02
 1  3  3     1.4938035833e-01
 2  1  1    -4.5854891327e-02
 2  1  2     3.7702194431e-03
 2  1  3    -6.3580733984e-03
 2  2  1    -1.0466380253e-01
 2  2  2     3.7882181276e-02
 2  2  3    -3.5112382360e-02
 2  3  1    -6.6561453275e-02
 2  3  2     1.0591050262e-01
 2  3  3    -9.8314861435e-02
 3  1  1     7.0341543821e-02
 3  1  2     7.8405055569e-02
 3  1  3     1.4938035833e-01
 3  2  1    -6.6561453275e-02
 3  2  2     1.0591050262e-01
 3  2  3    -9.8314861435e-02
 3  3  1     1.4835744521e-01
 3  3  2     1.0986773787e-01
 3  3  3     1.5971611396e-01

   27
0.0000000000e+00 0.0000000000e+00 0.0000000000e+00
1.9999996104e-09 -5.5135291240e+00 0.0000000000e+00
     1      1      1
 1  1  1     3.4986703826e-11
 1  1  2    -2.4033434669e-01
 1  1  3     0.0000000000e+00
 1  2  1     7.1942087218e-02
 1  2  2     1.7826070147e-11
 1  2  3     0.0000000000e+00
 1  3  1     0.0000000000e+00
 1  3  2     0.0000000000e+00
 1  3  3    -2.5933992850e-11
 2  1  1     7.1942087218e-02
 2  1  2     1.7826049172e-11
 2  1  3     0.0000000000e+00
 2  2  1     1.7826074029e-11
 2  2  2    -4.9142321849e-02
 2  2  3     0.0000000000e+00
 2  3  1     0.0000000000e+00
 2  3  2     0.0000000000e+00
 2  3  3     7.1493926136e-02
 3  1  1     0.0000000000e+00
 3  1  2     0.0000000000e+00
 3  1  3    -2.5933992850e-11
 3  2  1     0.0000000000e+00
 3  2  2     0.0000000000e+00
 3  2  3     7.1493926136e-02
 3  3  1    -7.6872479924e-12
 3  3  2     2.1191936905e-02
 3  3  3     0.0000000000e+00

   28
0.0000000000e+00 0.0000000000e+00 0.0000000000e+00
1.5916187620e+00 -2.7567645620e+00 0.0000000000e+00
     1      1      1
 1  1  1    -1.8094133306e+00
 1  1  2     7.5687508910e-01
 1  1  3     0.0000000000e+00
 1  2  1     2.6680644663e+00
 1  2  2    -2.1605388408e+00
 1  2  3     0.0000000000e+00
 1  3  1     0.0000000000e+00
 1  3  2     0.0000000000e+00
 1  3  3     7.2985648235e-01
 2  1  1     2.6680644663e+00
 2  1  2    -2.1605388408e+00
 2  1  3     0.0000000000e+00
 2  2  1    -3.9089820341e+00
 2  2  2     3.0473719530e+00
 2  2  3     0.0000000000e+00
 2  3  1     0.0000000000e+00
 2  3  2     0.0000000000e+00
 2  3  3     1.4054429201e+00
 3  1  1     0.0000000000e+00
 3  1  2     0.0000000000e+00
 3  1  3     7.2985648235e-01
 3  2  1     0.0000000000e+00
 3  2  2     0.0000000000e+00
 3  2  3     1.4054429201e+00
 3  3  1     3.0995001555e-02
 3  3  2     2.1462221989e+00
 3  3  3     0.0000000000e+00

   29
0.0000000000e+00 0.0000000000e+00 0.0000000000e+00
1.5916187620e+00 -2.7567645620e+00 0.0000000000e+00
     1      1      2
 1  1  1     4.2639268866e-02
 1  1  2     7.6003235498e-03
 1  1  3     5.9674462804e-02
 1  2  1    -4.7418852048e-02
 1  2  2    -7.3198234901e-02
 1  2  3     4.8900844794e-02
 1  3  1    -9.1889832582e-02
 1  3  2    -5.4120542892e-02
 1  3  3    -1.5983334664e-01
 2  1  1    -4.7418852048e-02
 2  1  2    -7.3198234901e-02
 2  1  3     4.8900844794e-02
 2  2  1     4.8373801540e-02
 2  2  2     1.0434590611e-02
 2  2  3     1.3082363640e-01
 2  3  1     9.0845965951e-02
 2  3  2    -8.4362213854e-02
 2  3  3    -8.0209754468e-02
 3  1  1    -9.1889832582e-02
 3  1  2    -5.4120542892e-02
 3  1  3    -1.5983334664e-01
 3  2  1     9.0845965951e-02
 3  2  2    -8.4362213854e-02
 3  2  3    -8.0209754468e-02
 3  3  1     2.0969529437e-02
 3  3  2    -1.8341518545e-01
 3  3  3    -1.5971611396e-01

   30
0.0000000000e+00 0.0000000000e+00 0.0000000000e+00
1.5916187620e+00 -2.7567645620e+00 0.0000000000e+00
     1      1      3
 1  1  1     4.2639268866e-02
 1  1  2     7.6003235498e-03
 1  1  3    -5.9674462804e-02
 1  2  1    -4.7418852048e-02
 1  2  2    -7.3198234901e-02
 1  2  3    -4.8900844794e-02
 1  3  1     9.1889832582e-02
 1  3  2     5.4120542892e-02
 1  3  3    -1.5983334664e-01
 2  1  1    -4.7418852048e-02
 2  1  2    -7.3198234901e-02
 2  1  3    -4.8900844794e-02
 2  2  1     4.8373801540e-02
 2  2  2     1.0434590611e-02
 2  2  3    -1.3082363640e-01
 2  3  1    -9.0845965951e-02
 2  3  2     8.4362213854e-02
 2  3  3    -8.0209754468e-02
 3  1  1     9.1889832582e-02
 3  1  2     5.4120542892e-02
 3  1  3    -1.5983334664e-01
 3  2  1    -9.0845965951e-02
 3  2  2     8.4362213854e-02
 3  2  3    -8.0209754468e-02
 3  3  1     2.0969529437e-02
 3  3  2    -1.8341518545e-01
 3  3  3     1.5971611396e-01

   31
0.0000000000e+00 0.0000000000e+00 0.0000000000e+00
4.7748562840e+00 -2.7567645620e+00 0.0000000000e+00
     1      1      1
 1  1  1    -6.5445915334e-02
 1  1  2    -1.5929891009e-01
 1  1  3     0.0000000000e+00
 1  2  1    -1.2006424435e-01
 1  2  2    -4.4467450109e-02
 1  2  3     0.0000000000e+00
 1  3  1     0.0000000000e+00
 1  3  2     0.0000000000e+00
 1  3  3     3.3912557896e-02
 2  1  1    -1.2006424435e-01
 2  1  2    -4.4467450109e-02
 2  1  3     0.0000000000e+00
 2  2  1     2.3488984460e-02
 2  2  2     1.8352275576e-01
 2  2  3     0.0000000000e+00
 2  3  1     0.0000000000e+00
 2  3  2     0.0000000000e+00
 2  3  3    -1.9579424438e-02
 3  1  1     0.0000000000e+00
 3  1  2     0.0000000000e+00
 3  1  3     3.3912557896e-02
 3  2  1     0.0000000000e+00
 3  2  2     0.0000000000e+00
 3  2  3    -1.9579424438e-02
 3  3  1    -8.1267707063e-02
 3  3  2     4.6919932568e-02
 3  3  3     0.0000000000e+00

   32
0.0000000000e+00 0.0000000000e+00 0.0000000000e+00
-4.7748562820e+00 -2.7567645620e+00 0.0000000000e+00
     1      1      1
 1  1  1     6.5445915624e-02
 1  1  2    -1.5929891016e-01
 1  1  3     0.0000000000e+00
 1  2  1    -1.2006424436e-01
 1  2  2     4.4467449976e-02
 1  2  3     0.0000000000e+00
 1  3  1     0.0000000000e+00
 1  3  2     0.0000000000e+00
 1  3  3    -3.3912557882e-02
 2  1  1    -1.2006424436e-01
 2  1  2     4.4467449976e-02
 2  1  3     0.0000000000e+00
 2  2  1    -2.3488984594e-02
 2  2  2     1.8352275576e-01
 2  2  3     0.0000000000e+00
 2  3  1     0.0000000000e+00
 2  3  2     0.0000000000e+00
 2  3  3    -1.9579424438e-02
 3  1  1     0.0000000000e+00
 3  1  2     0.0000000000e+00
 3  1  3    -3.3912557882e-02
 3  2  1     0.0000000000e+00
 3  2  2     0.0000000000e+00