 1824

    1
0.0000000000e+00 0.0000000000e+00 0.0000000000e+00
0.0000000000e+00 0.0000000000e+00 0.0000000000e+00
     1      1      1
 1  1  1     0.0000000000e+00
 1  1  2     0.0000000000e+00
 1  1  3     0.0000000000e+00
 1  2  1     0.0000000000e+00
 1  2  2     0.0000000000e+00
 1  2  3     0.0000000000e+00
 1  3  1     0.0000000000e+00
 1  3  2     0.0000000000e+00
 1  3  3     0.0000000000e+00
 2  1  1     0.0000000000e+00
 2  1  2     0.0000000000e+00
 2  1  3     0.0000000000e+00
 2  2  1     0.0000000000e+00
 2  2  2     0.0000000000e+00
 2  2  3     0.0000000000e+00
 2  3  1     0.0000000000e+00
 2  3  2     0.0000000000e+00
 2  3  3     0.0000000000e+00
 3  1  1     0.0000000000e+00
 3  1  2     0.0000000000e+00
 3  1  3     0.0000000000e+00
 3  2  1     0.0000000000e+00
 3  2  2     0.0000000000e+00
 3  2  3     0.0000000000e+00
 3  3  1     0.0000000000e+00
 3  3  2     0.0000000000e+00
 3  3  3     0.0000000000e+00

    2
0.0000000000e+00 0.0000000000e+00 0.0000000000e+00
0.0000000000e+00 0.0000000000e+00 0.0000000000e+00
     1      1      3
 1  1  1     1.5400861399e-01
 1  1  2     6.0621918821e-01
 1  1  3    -8.8882327122e+00
 1  2  1     1.2430878933e+00
 1  2  2    -3.1636011394e-01
 1  2  3     4.6338405730e+00
 1  3  1    -9.0406130017e+00
 1  3  2     5.4764767231e+00
 1  3  3     9.4425706517e+00
 2  1  1     1.2430878933e+00
 2  1  2    -3.1636011394e-01
 2  1  3     4.6338405730e+00
 2  2  1     7.8672884072e-01
 2  2  2    -1.1493542108e+00
 2  2  3    -3.5375345085e+00
 2  3  1     5.4764767231e+00
 2  3  2    -2.7169223823e+00
 2  3  3    -5.4516707081e+00
 3  1  1    -9.0406130017e+00
 3  1  2     5.4764767231e+00
 3  1  3     9.4425706517e+00
 3  2  1     5.4764767231e+00
 3  2  2    -2.7169223823e+00
 3  2  3    -5.4516707081e+00
 3  3  1     9.5295837910e+00
 3  3  2    -5.5019077675e+00
 3  3  3    -1.0008560716e+01

    3
0.0000000000e+00 0.0000000000e+00 0.0000000000e+00
0.0000000000e+00 0.0000000000e+00 0.0000000000e+00
     1      1      4
 1  1  1     0.0000000000e+00
 1  1  2     0.0000000000e+00
 1  1  3     1.6297977079e-03
 1  2  1     0.0000000000e+00
 1  2  2     0.0000000000e+00
 1  2  3     2.8347388147e-13
 1  3  1     2.8031209832e-03
 1  3  2     4.8755227811e-13
 1  3  3     0.0000000000e+00
 2  1  1     0.0000000000e+00
 2  1  2     0.0000000000e+00
 2  1  3     2.8347388147e-13
 2  2  1     0.0000000000e+00
 2  2  2     0.0000000000e+00
 2  2  3     1.6297977078e-03
 2  3  1     4.8755227811e-13
 2  3  2     2.8031209831e-03
 2  3  3     0.0000000000e+00
 3  1  1     2.8031209832e-03
 3  1  2     4.8755227811e-13
 3  1  3     0.0000000000e+00
 3  2  1     4.8755227811e-13
 3  2  2     2.8031209831e-03
 3  2  3     0.0000000000e+00
 3  3  1     0.0000000000e+00
 3  3  2     0.0000000000e+00
 3  3  3    -2.5171071138e-02

    4
0.0000000000e+00 0.0000000000e+00 0.0000000000e+00
0.0000000000e+00 0.0000000000e+00 0.0000000000e+00
     1      1      5
 1  1  1     1.5400861399e-01
 1  1  2     6.0621918821e-01
 1  1  3     8.8882327122e+00
 1  2  1     1.2430878933e+00
 1  2  2    -3.1636011394e-01
 1  2  3    -4.6338405730e+00
 1  3  1     9.0406130017e+00
 1  3  2    -5.4764767231e+00
 1  3  3     9.4425706517e+00
 2  1  1     1.2430878933e+00
 2  1  2    -3.1636011394e-01
 2  1  3    -4.6338405730e+00
 2  2  1     7.8672884072e-01
 2  2  2    -1.1493542108e+00
 2  2  3     3.5375345085e+00
 2  3  1    -5.4764767231e+00
 2  3  2     2.7169223823e+00
 2  3  3    -5.4516707081e+00
 3  1  1     9.0406130017e+00
 3  1  2    -5.4764767231e+00
 3  1  3     9.4425706517e+00
 3  2  1    -5.4764767231e+00
 3  2  2     2.7169223823e+00
 3  2  3    -5.4516707081e+00
 3  3  1     9.5295837910e+00
 3  3  2    -5.5019077675e+00
 3  3  3     1.0008560716e+01

    5
0.0000000000e+00 0.0000000000e+00 0.0000000000e+00
-3.3194036670e+00 0.0000000000e+00 0.0000000000e+00
     1      1      1
 1  1  1    -1.2797903521e-09
 1  1  2    -9.5955313172e+00
 1  1  3     0.0000000000e+00
 1  2  1     1.1187681941e+00
 1  2  2     1.9131778160e-10
 1  2  3     0.0000000000e+00
 1  3  1     0.0000000000e+00
 1  3  2     0.0000000000e+00
 1  3  3     5.2438122982e-10
 2  1  1     1.1187681941e+00
 2  1  2     1.9131778160e-10
 2  1  3     0.0000000000e+00
 2  2  1     1.9131778160e-10
 2  2  2     1.0999577115e+00
 2  2  3     0.0000000000e+00
 2  3  1     0.0000000000e+00
 2  3  2     0.0000000000e+00
 2  3  3     3.0148644452e+00
 3  1  1     0.0000000000e+00
 3  1  2     0.0000000000e+00
 3  1  3     5.2438122982e-10
 3  2  1     0.0000000000e+00
 3  2  2     0.0000000000e+00
 3  2  3     3.0148644452e+00
 3  3  1     5.1933326527e-11
 3  3  2     2.9858418029e-01
 3  3  3     0.0000000000e+00

    6
0.0000000000e+00 0.0000000000e+00 0.0000000000e+00
3.3194036670e+00 0.0000000000e+00 0.0000000000e+00
     1      1      3
 1  1  1    -1.5400861291e-01
 1  1  2     6.0621918843e-01
 1  1  3    -8.8882327154e+00
 1  2  1     1.2430878932e+00
 1  2  2     3.1636011354e-01
 1  2  3    -4.6338405743e+00
 1  3  1    -9.0406130055e+00
 1  3  2    -5.4764767241e+00
 1  3  3    -9.4425706536e+00
 2  1  1     1.2430878932e+00
 2  1  2     3.1636011354e-01
 2  1  3    -4.6338405743e+00
 2  2  1    -7.8672884112e-01
 2  2  2    -1.1493542108e+00
 2  2  3    -3.5375345085e+00
 2  3  1    -5.4764767241e+00
 2  3  2    -2.7169223823e+00
 2  3  3    -5.4516707081e+00
 3  1  1    -9.0406130055e+00
 3  1  2    -5.4764767241e+00
 3  1  3    -9.4425706536e+00
 3  2  1    -5.4764767241e+00
 3  2  2    -2.7169223823e+00
 3  2  3    -5.4516707081e+00
 3  3  1    -9.5295837929e+00
 3  3  2    -5.5019077675e+00
 3  3  3    -1.0008560716e+01

    7
0.0000000000e+00 0.0000000000e+00 0.0000000000e+00
-3.3194036670e+00 0.0000000000e+00 0.0000000000e+00
     1      1      4
 1  1  1    -3.2004621435e-13
 1  1  2    -7.2132577469e-04
 1  1  3     1.3245372928e-01
 1  2  1    -5.5936999865e-04
 1  2  2     1.8772481856e-12
 1  2  3     2.1666249018e-11
 1  3  1    -1.0430788281e-03
 1  3  2    -9.4288695050e-27
 1  3  3     1.1832583668e-13
 2  1  1    -5.5936999865e-04
 2  1  2     1.8772481856e-12
 2  1  3     2.1666249018e-11
 2  2  1     1.8772481856e-12
 2  2  2     1.0793004188e-02
 2  2  3     1.2456739508e-01
 2  3  1    -9.4288695050e-27
 2  3  2    -5.4210108624e-17
 2  3  3     6.8029963254e-04
 3  1  1    -1.0430788281e-03
 3  1  2    -9.4288695050e-27
 3  1  3     1.1832583668e-13
 3  2  1    -9.4288695050e-27
 3  2  2    -5.4210108624e-17
 3  2  3     6.8029963254e-04
 3  3  1    -4.9660014117e-13
 3  3  2    -2.8551405427e-03
 3  3  3    -2.8609641614e-02

    8
0.0000000000e+00 0.0000000000e+00 0.0000000000e+00
3.3194036670e+00 0.0000000000e+00 0.0000000000e+00
     1      1      5
 1  1  1    -1.5400861291e-01
 1  1  2     6.0621918843e-01
 1  1  3     8.8882327154e+00
 1  2  1     1.2430878932e+00
 1  2  2     3.1636011354e-01
 1  2  3     4.6338405743e+00
 1  3  1     9.0406130055e+00
 1  3  2     5.4764767241e+00
 1  3  3    -9.4425706536e+00
 2  1  1     1.2430878932e+00
 2  1  2     3.1636011354e-01
 2  1  3     4.6338405743e+00
 2  2  1    -7.8672884112e-01
 2  2  2    -1.1493542108e+00
 2  2  3     3.5375345085e+00
 2  3  1     5.4764767241e+00
 2  3  2     2.7169223823e+00
 2  3  3    -5.4516707081e+00
 3  1  1     9.0406130055e+00
 3  1  2     5.4764767241e+00
 3  1  3    -9.4425706536e+00
 3  2  1     5.4764767241e+00
 3  2  2     2.7169223823e+00
 3  2  3    -5.4516707081e+00
 3  3  1    -9.5295837929e+00
 3  3  2    -5.5019077675e+00
 3  3  3     1.0008560716e+01

    9
0.0000000000e+00 0.0000000000e+00 0.0000000000e+00
-1.6597018330e+00 2.8746879010e+00 0.0000000000e+00
     1      1      1
 1  1  1     8.7860914040e-01
 1  1  2     1.6260334175e+00
 1  1  3     0.0000000000e+00
 1  2  1    -3.7311163366e+00
 1  2  2    -2.8000821392e+00
 1  2  3     0.0000000000e+00
 1  3  1     0.0000000000e+00
 1  3  2     0.0000000000e+00
 1  3  3    -2.6109491988e+00
 2  1  1    -3.7311163366e+00
 2  1  2    -2.8000821392e+00
 2  1  3     0.0000000000e+00
 2  2  1     6.4787734212e+00
 2  2  2     2.6217533843e+00
 2  2  3     0.0000000000e+00
 2  3  1     0.0000000000e+00
 2  3  2     0.0000000000e+00
 2  3  3    -1.5074322226e+00
 3  1  1     0.0000000000e+00
 3  1  2     0.0000000000e+00
 3  1  3    -2.6109491988e+00
 3  2  1     0.0000000000e+00
 3  2  2     0.0000000000e+00
 3  2  3    -1.5074322226e+00
 3  3  1    -2.5858148533e-01
 3  3  2    -1.4929209015e-01
 3  3  3     0.0000000000e+00

   10
0.0000000000e+00 0.0000000000e+00 0.0000000000e+00
1.6597018330e+00 -2.8746879010e+00 0.0000000000e+00
     1      1      3
 1  1  1     5.8426272995e-10
 1  1  2     1.9688735126e+00
 1  1  3    -8.6218540596e-01
 1  2  1     6.9513610275e-01
 1  2  2    -1.5351312106e-10
 1  2  3    -2.0112768369e-09
 1  3  1     4.4492292827e-01
 1  3  2    -2.1223987492e-09
 1  3  3     1.8964393173e-09
 2  1  1     6.9513610275e-01
 2  1  2    -1.5351292017e-10
 2  1  3    -2.0112768369e-09
 2  2  1    -1.5351282769e-10
 2  2  2    -8.8260346753e-01
 2  2  3    -1.1563581816e+01
 2  3  1    -2.1223978371e-09
 2  3  2    -1.2202458314e+01
 2  3  3     1.0903341416e+01
 3  1  1     4.4492292827e-01
 3  1  2    -2.1223978383e-09
 3  1  3     1.8964397604e-09
 3  2  1    -2.1223978383e-09
 3  2  2    -1.2202458314e+01
 3  2  3     1.0903341416e+01
 3  3  1     1.9139154228e-09
 3  3  2     1.1003815535e+01
 3  3  3    -1.0008560716e+01

   11
0.0000000000e+00 0.0000000000e+00 0.0000000000e+00
-1.6597018330e+00 2.8746879010e+00 0.0000000000e+00
     1      1      4
 1  1  1    -6.6118759344e-03
 1  1  2    -4.3767383486e-03
 1  1  3     1.2653897863e-01
 1  2  1    -4.4577162366e-03
 1  2  2    -2.2507112495e-03
 1  2  3    -3.4148828562e-03
 1  3  1    -2.6076970686e-04
 1  3  2     4.5166638149e-04
 1  3  3    -5.8915676403e-04
 2  1  1    -4.4577162366e-03
 2  1  2    -2.2507112495e-03
 2  1  3    -3.4148828562e-03
 2  2  1    -2.1104534332e-03
 2  2  2    -6.5910085905e-04
 2  2  3     1.3048214572e-01
 2  3  1     4.5166638149e-04
 2  3  2    -7.8230912103e-04
 2  3  3    -3.4014981627e-04
 3  1  1    -2.6076970686e-04
 3  1  2     4.5166638149e-04
 3  1  3    -5.8915676403e-04
 3  2  1     4.5166638149e-04
 3  2  2    -7.8230912103e-04
 3  2  3    -3.4014981627e-04
 3  3  1     2.4726242416e-03
 3  3  2     1.4275702714e-03
 3  3  3    -2.8609641614e-02

   12
0.0000000000e+00 0.0000000000e+00 0.0000000000e+00
1.6597018330e+00 -2.8746879010e+00 0.0000000000e+00
     1      1      5
 1  1  1     5.8426272995e-10
 1  1  2     1.9688735126e+00
 1  1  3     8.6218540596e-01
 1  2  1     6.9513610275e-01
 1  2  2    -1.5351312106e-10
 1  2  3     2.0112768369e-09
 1  3  1    -4.4492292827e-01
 1  3  2     2.1223987492e-09
 1  3  3     1.8964393173e-09
 2  1  1     6.9513610275e-01
 2  1  2    -1.5351292017e-10
 2  1  3     2.0112768369e-09
 2  2  1    -1.5351282769e-10
 2  2  2    -8.8260346753e-01
 2  2  3     1.1563581816e+01
 2  3  1     2.1223978371e-09
 2  3  2     1.2202458314e+01
 2  3  3     1.0903341416e+01
 3  1  1    -4.4492292827e-01
 3  1  2     2.1223978383e-09
 3  1  3     1.8964397604e-09
 3  2  1     2.1223978383e-09
 3  2  2     1.2202458314e+01
 3  2  3     1.0903341416e+01
 3  3  1     1.9139154228e-09
 3  3  2     1.1003815535e+01
 3  3  3     1.0008560716e+01

   13
0.0000000000e+00 0.0000000000e+00 0.0000000000e+00
-1.6597018340e+00 -2.8746879010e+00 0.0000000000e+00
     1      1      1
 1  1  1    -8.7860914243e-01
 1  1  2     1.6260334194e+00
 1  1  3     0.0000000000e+00
 1  2  1    -3.7311163379e+00
 1  2  2     2.8000821401e+00
 1  2  3     0.0000000000e+00
 1  3  1     0.0000000000e+00
 1  3  2     0.0000000000e+00
 1  3  3     2.6109491983e+00
 2  1  1    -3.7311163379e+00
 2  1  2     2.8000821401e+00
 2  1  3     0.0000000000e+00
 2  2  1    -6.4787734203e+00
 2  2  2     2.6217533843e+00
 2  2  3     0.0000000000e+00
 2  3  1     0.0000000000e+00
 2  3  2     0.0000000000e+00
 2  3  3    -1.5074322226e+00
 3  1  1     0.0000000000e+00
 3  1  2     0.0000000000e+00
 3  1  3     2.6109491983e+00
 3  2  1     0.0000000000e+00
 3  2  2     0.0000000000e+00
 3  2  3    -1.5074322226e+00
 3  3  1     2.5858148528e-01
 3  3  2    -1.4929209015e-01
 3  3  3     0.0000000000e+00

   14
0.0000000000e+00 0.0000000000e+00 0.0000000000e+00
4.9791055000e+00 -2.8746879010e+00 0.0000000000e+00
     1      1      3
 1  1  1     0.0000000000e+00
 1  1  2     0.0000000000e+00
 1  1  3    -1.1255105440e+00
 1  2  1     0.0000000000e+00
 1  2  2     0.0000000000e+00
 1  2  3    -1.9576223541e-10
 1  3  1     4.9911159214e-01
 1  3  2     8.6811448825e-11
 1  3  3     0.0000000000e+00
 2  1  1     0.0000000000e+00
 2  1  2     0.0000000000e+00
 2  1  3    -1.9576223541e-10
 2  2  1     0.0000000000e+00
 2  2  2     0.0000000000e+00
 2  2  3    -1.1255105440e+00
 2  3  1     8.6811448825e-11
 2  3  2     4.9911159213e-01
 2  3  3     0.0000000000e+00
 3  1  1     4.9911159214e-01
 3  1  2     8.6811448825e-11
 3  1  3     0.0000000000e+00
 3  2  1     8.6811448825e-11
 3  2  2     4.9911159213e-01
 3  2  3     0.0000000000e+00
 3  3  1     0.0000000000e+00
 3  3  2     0.0000000000e+00
 3  3  3    -4.3477195051e-01

   15
0.0000000000e+00 0.0000000000e+00 0.0000000000e+00
1.6597018340e+00 2.8746879010e+00 0.0000000000e+00
     1      1      4
 1  1  1     6.6118759298e-03
 1  1  2    -4.3767383471e-03
 1  1  3     1.2653897863e-01
 1  2  1    -4.4577162351e-03
 1  2  2     2.2507112493e-03
 1  2  3     3.4148829016e-03
 1  3  1    -2.6076970717e-04
 1  3  2    -4.5166638176e-04
 1  3  3     5.8915676391e-04
 2  1  1    -4.4577162351e-03
 2  1  2     2.2507112493e-03
 2  1  3     3.4148829016e-03
 2  2  1     2.1104534330e-03
 2  2  2    -6.5910085905e-04
 2  2  3     1.3048214572e-01
 2  3  1    -4.5166638176e-04
 2  3  2    -7.8230912103e-04
 2  3  3    -3.4014981627e-04
 3  1  1    -2.6076970717e-04
 3  1  2    -4.5166638176e-04
 3  1  3     5.8915676391e-04
 3  2  1    -4.5166638176e-04
 3  2  2    -7.8230912103e-04
 3  2  3    -3.4014981627e-04
 3  3  1    -2.4726242411e-03
 3  3  2     1.4275702714e-03
 3  3  3    -2.8609641614e-02

   16
0.0000000000e+00 0.0000000000e+00 0.0000000000e+00
4.9791055000e+00 -2.8746879010e+00 0.0000000000e+00
     1      1      5
 1  1  1     0.0000000000e+00
 1  1  2     0.0000000000e+00
 1  1  3     1.1255105440e+00
 1  2  1     0.0000000000e+00
 1  2  2     0.0000000000e+00
 1  2  3     1.9576221487e-10
 1  3  1    -4.9911159214e-01
 1  3  2    -8.6811412012e-11
 1  3  3     0.0000000000e+00
 2  1  1     0.0000000000e+00
 2  1  2     0.0000000000e+00
 2  1  3     1.9576221487e-10
 2  2  1     0.0000000000e+00
 2  2  2     0.0000000000e+00
 2  2  3     1.1255105440e+00
 2  3  1    -8.6811412012e-11
 2  3  2    -4.9911159213e-01
 2  3  3     0.0000000000e+00
 3  1  1    -4.9911159214e-01
 3  1  2    -8.6811439719e-11
 3  1  3     0.0000000000e+00
 3  2  1    -8.6811439719e-11
 3  2  2    -4.9911159213e-01
 3  2  3     0.0000000000e+00
 3  3  1     0.0000000000e+00
 3  3  2     0.0000000000e+00
 3  3  3     4.3477195051e-01

   17
0.0000000000e+00 0.0000000000e+00 0.0000000000e+00
0.0000000000e+00 0.0000000000e+00 1.5051693951e+01
     1      1      6
 1  1  1     0.0000000000e+00
 1  1  2     0.0000000000e+00
 1  1  3    -1.6297977079e-03
 1  2  1     0.0000000000e+00
 1  2  2     0.0000000000e+00
 1  2  3    -2.8347385174e-13
 1  3  1    -2.8031209832e-03
 1  3  2    -4.8755207136e-13
 1  3  3     0.0000000000e+00
 2  1  1     0.0000000000e+00
 2  1  2     0.0000000000e+00
 2  1  3    -2.8347385174e-13
 2  2  1     0.0000000000e+00
 2  2  2     0.0000000000e+00
 2  2  3    -1.6297977078e-03
 2  3  1    -4.8755207136e-13
 2  3  2    -2.8031209831e-03
 2  3  3     0.0000000000e+00
 3  1  1    -2.8031209832e-03
 3  1  2    -4.8755222697e-13
 3  1  3     0.0000000000e+00
 3  2  1    -4.8755222697e-13
 3  2  2    -2.8031209831e-03
 3  2  3     0.0000000000e+00
 3  3  1     0.0000000000e+00
 3  3  2     0.0000000000e+00
 3  3  3     2.5171071138e-02

   18
0.0000000000e+00 0.0000000000e+00 0.0000000000e+00
-3.3194036670e+00 0.0000000000e+00 1.5051693951e+01
     1      1      6
 1  1  1    -3.2004621435e-13
 1  1  2    -7.2132577469e-04
 1  1  3    -1.3245372928e-01
 1  2  1    -5.5936999865e-04
 1  2  2     1.8772481856e-12
 1  2  3    -2.1666249018e-11
 1  3  1     1.0430788281e-03
 1  3  2     9.4288695050e-27
 1  3  3     1.1832583668e-13
 2  1  1    -5.5936999865e-04
 2  1  2     1.8772481856e-12
 2  1  3    -2.1666249018e-11
 2  2  1     1.8772481856e-12
 2  2  2     1.0793004188e-02
 2  2  3    -1.2456739508e-01
 2  3  1     9.4288695050e-27
 2  3  2     5.4210108624e-17
 2  3  3     6.8029963254e-04
 3  1  1     1.0430788281e-03
 3  1  2     9.4288695050e-27
 3  1  3     1.1832583668e-13
 3  2  1     9.4288695050e-27
 3  2  2     5.4210108624e-17
 3  2  3     6.8029963254e-04
 3  3  1    -4.9660014117e-13
 3  3  2    -2.8551405427e-03
 3  3  3     2.8609641614e-02

   19
0.0000000000e+00 0.0000000000e+00 0.0000000000e+00
-1.6597018330e+00 2.8746879010e+00 1.5051693951e+01
     1      1      6
 1  1  1    -6.6118759344e-03
 1  1  2    -4.3767383486e-03
 1  1  3    -1.2653897863e-01
 1  2  1    -4.4577162366e-03
 1  2  2    -2.2507112495e-03
 1  2  3     3.4148828562e-03
 1  3  1     2.6076970686e-04
 1  3  2    -4.5166638149e-04
 1  3  3    -5.8915676403e-04
 2  1  1    -4.4577162366e-03
 2  1  2    -2.2507112495e-03
 2  1  3     3.4148828562e-03
 2  2  1    -2.1104534332e-03
 2  2  2    -6.5910085905e-04
 2  2  3    -1.3048214572e-01
 2  3  1    -4.5166638149e-04
 2  3  2     7.8230912103e-04
 2  3  3    -3.4014981627e-04
 3  1  1     2.6076970686e-04
 3  1  2    -4.5166638149e-04
 3  1  3    -5.8915676403e-04
 3  2  1    -4.5166638149e-04
 3  2  2     7.8230912103e-04
 3  2  3    -3.4014981627e-04
 3  3  1     2.4726242416e-03
 3  3  2     1.4275702714e-03
 3  3  3     2.8609641614e-02

   20
0.0000000000e+00 0.0000000000e+00 0.0000000000e+00
1.6597018340e+00 2.8746879010e+00 1.5051693951e+01
     1      1      6
 1  1  1     6.6118759298e-03
 1  1  2    -4.3767383471e-03
 1  1  3    -1.2653897863e-01
 1  2  1    -4.4577162351e-03
 1  2  2     2.2507112493e-03
 1  2  3    -3.4148829016e-03
 1  3  1     2.6076970717e-04
 1  3  2     4.5166638176e-04
 1  3  3     5.8915676391e-04
 2  1  1    -4.4577162351e-03
 2  1  2     2.2507112493e-03
 2  1  3    -3.4148829016e-03
 2  2  1     2.1104534330e-03
 2  2  2    -6.5910085905e-04
 2  2  3    -1.3048214572e-01
 2  3  1     4.5166638176e-04
 2  3  2     7.8230912103e-04
 2  3  3    -3.4014981627e-04
 3  1  1     2.6076970717e-04
 3  1  2     4.5166638176e-04
 3  1  3     5.8915676391e-04
 3  2  1     4.5166638176e-04
 3  2  2     7.8230912103e-04
 3  2  3    -3.4014981627e-04
 3  3  1    -2.4726242411e-03
 3  3  2     1.4275702714e-03
 3  3  3     2.8609641614e-02

   21
0.0000000000e+00 0.0000000000e+00 0.0000000000e+00
0.0000000000e+00 0.0000000000e+00 0.0000000000e+00
     1      3      1
 1  1  1     1.5400861399e-01
 1  1  2     1.2430878933e+00
 1  1  3    -9.0406130017e+00
 1  2  1     6.0621918821e-01
 1  2  2    -3.1636011394e-01
 1  2  3     5.4764767231e+00
 1  3  1    -8.8882327122e+00
 1  3  2     4.6338405730e+00
 1  3  3     9.4425706517e+00
 2  1  1     1.2430878933e+00
 2  1  2     7.8672884072e-01
 2  1  3     5.4764767231e+00
 2  2  1    -3.1636011394e-01
 2  2  2    -1.1493542108e+00
 2  2  3    -2.7169223823e+00
 2  3  1     4.6338405730e+00
 2  3  2    -3.5375345085e+00
 2  3  3    -5.4516707081e+00
 3  1  1    -9.0406130017e+00
 3  1  2     5.4764767231e+00
 3  1  3     9.5295837910e+00
 3  2  1     5.4764767231e+00
 3  2  2    -2.7169223823e+00
 3  2  3    -5.5019077675e+00
 3  3  1     9.4425706517e+00
 3  3  2    -5.4516707081e+00
 3  3  3    -1.0008560716e+01

   22
0.0000000000e+00 0.0000000000e+00 0.0000000000e+00
0.0000000000e+00 0.0000000000e+00 0.0000000000e+00
     1      3      3
 1  1  1     6.3161067604e-01
 1  1  2    -4.5715666788e-01
 1  1  3     1.1216563810e+01
 1  2  1    -4.5715666788e-01
 1  2  2    -6.5417398745e-02
 1  2  3    -6.2415492320e+00
 1  3  1     1.1216563810e+01
 1  3  2    -6.2415492320e+00
 1  3  3    -1.1519472135e+01
 2  1  1    -2.1817324169e-01
 2  1  2     3.4851403745e-01
 2  1  3    -6.2415492320e+00
 2  2  1     3.4851403745e-01
 2  2  2    -1.0871859937e-01
 2  2  3     4.0094435530e+00
 2  3  1    -6.2415492320e+00
 2  3  2     4.0094435530e+00
 2  3  3     6.6507703387e+00
 3  1  1     9.8054550463e+00
 3  1  2    -5.5411781841e+00
 3  1  3    -1.0970385147e+01
 3  2  1    -5.5411781841e+00
 3  2  2     3.4070536149e+00
 3  2  3     6.3337548182e+00
 3  3  1    -1.0970385147e+01
 3  3  2     6.3337548182e+00
 3  3  3     1.2713103390e+01

   23
0.0000000000e+00 0.0000000000e+00 0.0000000000e+00
0.0000000000e+00 0.0000000000e+00 0.0000000000e+00
     1      3      5
 1  1  1    -4.4314916767e-01
 1  1  2     9.7721502251e-02
 1  1  3    -2.1945565613e-01
 1  2  1     9.7721502251e-02
 1  2  2     3.4044994373e-02
 1  2  3    -1.5793339033e-01
 1  3  1     2.1945565613e-01
 1  3  2     1.5793339033e-01
 1  3  3     7.6587574253e-01
 2  1  1    -5.9688473378e-02
 2  1  2    -2.3859708095e-01
 2  1  3    -1.5793339033e-01
 2  2  1    -2.3859708095e-01
 2  2  2     2.9588487791e-01
 2  2  3    -4.0182142682e-01
 2  3  1     1.5793339033e-01
 2  3  2     4.0182142682e-01
 2  3  3    -4.4217856616e-01
 3  1  1     0.0000000000e+00
 3  1  2     0.0000000000e+00
 3  1  3     6.3677128021e-01
 3  2  1     0.0000000000e+00
 3  2  2     0.0000000000e+00
 3  2  3    -3.6764007007e-01
 3  3  1     6.3677128021e-01
 3  3  2    -3.6764007007e-01
 3  3  3     0.0000000000e+00

   24
0.0000000000e+00 0.0000000000e+00 0.0000000000e+00
-3.3194036670e+00 0.0000000000e+00 0.0000000000e+00
     1      3      1
 1  1  1     1.5039823570e-10
 1  1  2     9.5761168463e-01
 1  1  3    -2.2365211127e-01
 1  2  1    -1.0505274807e+00
 1  2  2     8.1771504772e-02
 1  2  3     7.7134014505e-03
 1  3  1    -1.2210980904e+00
 1  3  2     4.4994307038e-01
 1  3  3     4.0103586832e-01
 2  1  1     9.5761168460e-01
 2  1  2     8.8983618786e-12
 2  1  3     2.0060806388e-01
 2  2  1    -8.1771504754e-02
 2  2  2     5.1160021226e-02
 2  2  3    -1.8571896586e-01
 2  3  1    -4.4994307079e-01
 2  3  2    -1.1942732482e+00
 2  3  3    -1.0931534899e+00
 3  1  1    -2.2365211134e-01
 3  1  2    -2.0060806394e-01
 3  1  3    -2.7802242145e-10
 3  2  1    -7.7134015151e-03
 3  2  2    -1.8571896586e-01
 3  2  3    -1.5984552187e+00
 3  3  1    -4.0103586870e-01
 3  3  2    -1.0931534899e+00
 3  3  3    -1.9477004145e+00

   25
0.0000000000e+00 0.0000000000e+00 0.0000000000e+00
3.3194036670e+00 0.0000000000e+00 0.0000000000e+00
     1      3      3
 1  1  1    -1.5689894869e-10
 1  1  2    -6.6277966167e-02
 1  1  3    -5.8078772970e-01
 1  2  1    -6.6277966068e-02
 1  2  2     4.7585267622e-12
 1  2  3     1.4466593418e-01
 1  3  1    -5.8078772958e-01
 1  3  2    -1.4466593406e-01
 1  3  3     1.9270155906e-11
 2  1  1    -7.6951499448e-01
 2  1  2    -2.8238505733e-01
 2  1  3    -4.6814922495e-01
 2  2  1     2.8238505734e-01
 2  2  2     2.7358555820e-02
 2  2  3     3.3855019350e-01
 2  3  1     4.6814922506e-01
 2  3  2     3.3855019350e-01
 2  3  3     1.1079135673e-01
 3  1  1     8.6701679405e-02
 3  1  2    -4.1459040103e-01
 3  1  3    -5.3941199068e-01
 3  2  1     4.1459040094e-01
 3  2  2    -2.3062626181e-01
 3  2  3     3.7012518352e-01
 3  3  1     5.3941199081e-01
 3  3  2     3.7012518352e-01
 3  3  3     6.4245375833e-01

   26
0.0000000000e+00 0.0000000000e+00 0.0000000000e+00
3.3194036670e+00 0.0000000000e+00 0.0000000000e+00
     1      3      5
 1  1  1    -9.5461289652e-11
 1  1  2    -6.2711590463e-02
 1  1  3    -3.7181771529e-01
 1  2  1    -6.2711590195e-02
 1  2  2     1.4958523121e-10
 1  2  3     2.1211883924e-01
 1  3  1     3.7181771554e-01
 1  3  2     2.1211883932e-01
 1  3  3     1.6080990531e-11
 2  1  1    -4.2341959219e-01
 2  1  2    -7.7067663500e-01
 2  1  3     5.0652342333e-01
 2  2  1     7.7067663529e-01
 2  2  2     8.6002162065e-01
 2  2  3    -2.3652625536e-01
 2  3  1     5.0652342341e-01
 2  3  2     2.3652625536e-01
 2  3  3     9.2455648371e-02
 3  1  1     3.4877717547e-11
 3  1  2     1.0026254238e-01
 3  1  3     1.2340651082e-01
 3  2  1     1.0026254238e-01
 3  2  2     0.0000000000e+00
 3  2  3    -2.8328555649e-02
 3  3  1    -1.2340651083e-01
 3  3  2    -2.8328555649e-02
 3  3  3     0.0000000000e+00

   27
0.0000000000e+00 0.0000000000e+00 0.0000000000e+00
-1.6597018330e+00 2.8746879010e+00 0.0000000000e+00
     1      3      1
 1  1  1    -2.2044155995e-01
 1  1  2    -1.0291369156e-01
 1  1  3    -2.8540809280e-01
 1  2  1     8.3033969036e-01
 1  2  2    -6.1229461151e-01
 1  2  3     1.6495323134e-01
 1  3  1    -1.2009794588e+00
 1  3  2    -4.3832757345e-01
 1  3  3     1.1472166268e+00
 2  1  1    -2.4454609243e-01
 2  1  2     1.0859191676e+00
 2  1  3    -2.7941431089e-02
 2  2  1    -6.9406611628e-01
 2  2  2    -3.3065596084e-01
 2  2  3    -1.2396298435e-01
 2  3  1     4.6155856772e-01
 2  3  2    -1.2143918798e+00
 2  3  3     1.9926949500e-01
 3  1  1    -1.0499641165e-01
 3  1  2     6.0792498611e-02
 3  1  3     1.3843028264e+00
 3  2  1    -1.3210216382e-01
 3  2  2    -3.0437466553e-01
 3  2  3     7.9922760936e-01
 3  3  1     7.4618075841e-01
 3  3  2     8.9388399491e-01
 3  3  3    -1.9477004145e+00

   28
0.0000000000e+00 0.0000000000e+00 0.0000000000e+00
1.6597018330e+00 -2.8746879010e+00 0.0000000000e+00
     1      3      3
 1  1  1     1.7753418127e-01
 1  1  2    -5.5994970616e-01
 1  1  3     2.4878808664e-01
 1  2  1    -7.0844439511e-02
 1  2  2     4.6519214814e-01
 1  2  3     1.0806595683e-02
 1  3  1    -3.1356660915e-02
 1  3  2     7.8536340030e-01
 1  3  3    -9.5948129458e-02
 2  1  1     3.6221441240e-02
 2  1  2    -2.8502151196e-01
 2  1  3     6.2362175480e-01
 2  2  1    -2.6364546313e-03
 2  2  2     3.3485677803e-01
 2  2  3    -4.9102562265e-01
 2  3  1     1.7254824118e-01
 2  3  2    -2.1088087504e-01
 2  3  3    -5.5395678365e-02
 3  1  1    -1.5129427656e-01
 3  1  2     2.7718337177e-01
 3  1  3    -5.9024380684e-01
 3  2  1    -5.5199743020e-01
 3  2  2     7.3696940985e-03
 3  2  3     2.8208189532e-01
 3  3  1    -5.0831816255e-02
 3  3  2    -6.5220707884e-01
 3  3  3     6.4245375833e-01

   29
0.0000000000e+00 0.0000000000e+00 0.0000000000e+00
1.6597018330e+00 -2.8746879010e+00 0.0000000000e+00
     1      3      5
 1  1  1    -4.3977248272e-01
 1  1  2    -1.1643938967e+00
 1  1  3    -5.8153034815e-01
 1  2  1     1.7045719178e-01
 1  2  2     6.1664034496e-02
 1  2  3     3.8544577836e-01
 1  3  1    -4.0832107425e-02
 1  3  2     2.6827993717e-01
 1  3  3    -8.0068940222e-02
 2  1  1    -3.1661435156e-01
 2  1  2    -6.3605657603e-01
 2  1  3     9.1041194267e-02
 2  2  1     1.3462005911e-01
 2  2  2     9.8313337233e-02
 2  2  3    -2.6813622554e-02
 2  3  1    -2.6124646927e-02
 2  3  2     6.4917607823e-01
 2  3  3    -4.6227824185e-02
 3  1  1    -8.6829908736e-02
 3  1  2     5.0131271207e-02
 3  1  3     8.6236504243e-02
 3  2  1     5.0131271207e-02
 3  2  2     8.6829908751e-02
 3  2  3    -9.2708895544e-02
 3  3  1    -3.7170006548e-02
 3  3  2     1.2103745119e-01
 3  3  3     0.0000000000e+00

   30
0.0000000000e+00 0.0000000000e+00 0.0000000000e+00
-1.6597018340e+00 -2.8746879010e+00 0.0000000000e+00
     1      3      1
 1  1  1     2.1858802387e-01
 1  1  2     1.6749347458e-01
 1  1  3    -4.3992697655e-01
 1  2  1     2.0896599606e-02
 1  2  2     1.7332030797e-01
 1  2  3    -6.5544236160e-02
 1  3  1     2.4872929720e-01
 1  3  2     3.1166465334e-01
 1  3  3    -2.1747811993e-01
 2  1  1     7.1961745406e-03
 2  1  2     1.4959047568e-01
 2  1  3    -6.5544236160e-02
 2  2  1    -1.0432275993e-01
 2  2  2    -2.3346455542e-01
 2  2  3    -5.1561094119e-01
 2  3  1     3.1166465334e-01
 2  3  2     6.0860863996e-01
 2  3  3     1.2556105109e-01
 3  1  1    -2.1213592313e-01
 3  1  2     1.0684701061e-01
 3  1  3     6.5535185218e-01
 3  2  1     1.0684701061e-01
 3  2  2    -8.8759622473e-02
 3  2  3    -3.7836756830e-01
 3  3  1     7.2324750349e-02
 3  3  2    -4.1756714086e-02
 3  3  3    -2.4832728855e-01

   31
0.0000000000e+00 0.0000000000e+00 0.0000000000e+00
1.6597018340e+00 2.8746879010e+00 0.0000000000e+00
     1      3      3
 1  1  1    -1.0109728608e-01
 1  1  2     1.9602941992e-01
 1  1  3     2.0714409683e-01
 1  2  1     8.8987084257e-03
 1  2  2     3.0513978566e-01
 1  2  3    -2.1174953891e-02
 1  3  1     8.3915779040e-02
 1  3  2    -1.0768657170e-01
 1  3  3     1.7209203650e-01
 2  1  1    -1.9097901466e-01
 2  1  2    -4.1058585913e-02
 2  1  3    -2.1174953891e-02
 2  2  1    -3.6517848578e-01
 2  2  2     7.3175022531e-02
 2  2  3     1.8269336614e-01
 2  3  1    -1.0768657170e-01
 2  3  2    -4.0429963233e-02
 2  3  3    -9.9357383607e-02
 3  1  1     7.2569764447e-02
 3  1  2    -3.7771298180e-02
 3  1  3    -3.3296459027e-01
 3  2  1    -3.7771298180e-02
 3  2  2     2.8955226109e-02
 3  2  3     1.9223719584e-01
 3  3  1     1.1689240674e-01
 3  3  2    -6.7487862506e-02
 3  3  3     3.7393696815e-01

   32
0.0000000000e+00 0.0000000000e+00 0.0000000000e+00
1.6597018340e+00 2.8746879010e+00 0.0000000000e+00
     1      3      5
 1  1  1     2.3147527578e-02
 1  1  2    -2.5000081689e-01
 1  1  3     6.8987971878e-02
 1  2  1    -2.8326193434e-02
 1  2  2    -1.3078837877e-01
 1  2  3     9.8500737316e-02
 1  3  1    -1.7499632660e-01
 1  3  2     1.1174261694e-01
 1  3  3    -1.0021321904e-02
 2  1  1    -1.9215330922e-02
 2  1  2    -1.1500790201e-01
 2  1  3     9.8500737316e-02
 2  2  1     2.6894380845e-01
 2  2  2     8.1361805339e-02
 2  2  3     1.8272682621e-01
 2  3  1     1.1174261694e-01
 2  3  2    -4.5967066687e-02
 2  3  3     5.7858128993e-03
 3  1  1    -1.4519798396e-01
 3  1  2     1.2463183126e-01
 3  1  3     1.7802412035e-02
 3  2  1     1.2463183126e-01
 3  2  2    -1.2855413466e-03