   0.22302E+01   0.10775E-04   0.15036E-05
   0.44605E+01   0.74330E-04   0.10343E-04
   0.66907E+01   0.23047E-03   0.31774E-04
   0.89209E+01   0.36150E-03   0.48447E-04
   0.11151E+02   0.56557E-03   0.72661E-04
   0.13381E+02   0.95914E-03   0.11729E-03
   0.15612E+02   0.11432E-02   0.13281E-03
   0.17842E+02   0.19002E-02   0.20738E-03
   0.20072E+02   0.23401E-02   0.23941E-03
   0.22302E+02   0.30924E-02   0.29002E-03
   0.24533E+02   0.42063E-02   0.36886E-03
   0.26763E+02   0.52778E-02   0.42189E-03
   0.28993E+02   0.67092E-02   0.48770E-03
   0.31223E+02   0.82506E-02   0.54206E-03
   0.33454E+02   0.10670E-01   0.63284E-03
   0.35684E+02   0.13127E-01   0.68152E-03
   0.37914E+02   0.16076E-01   0.72961E-03
   0.40144E+02   0.19958E-01   0.79120E-03
   0.42374E+02   0.24717E-01   0.82089E-03
   0.44605E+02   0.30295E-01   0.82454E-03
   0.46835E+02   0.38953E-01   0.86025E-03
   0.49065E+02   0.51494E-01   0.83621E-03
   0.51295E+02   0.84078E-01   0.77575E-03
   0.53526E+02   0.84222E-01   0.69958E-03
   0.55756E+02   0.86340E-01   0.59712E-03
   0.57986E+02   0.88342E-01   0.55304E-03
   0.60216E+02   0.89574E-01   0.54223E-03
   0.62447E+02   0.83682E-01   0.53034E-03
   0.64677E+02   0.61675E-01   0.61005E-03
   0.66907E+02   0.50158E-01   0.63591E-03
   0.69137E+02   0.45743E-01   0.76140E-03
   0.71368E+02   0.37438E-01   0.81228E-03
   0.73598E+02   0.24820E-01   0.81282E-03
   0.75828E+02   0.33094E-01   0.10390E-02
   0.78058E+02   0.88274E-01   0.22221E-02
   0.80289E+02   0.50838E-01   0.12390E-02
   0.82519E+02   0.48340E-01   0.11189E-02
   0.84749E+02   0.36974E-01   0.85030E-03
   0.86979E+02   0.28075E-01   0.66195E-03
   0.89209E+02   0.22428E-01   0.52865E-03
   0.91440E+02   0.17079E-01   0.38875E-03
   0.93670E+02   0.13156E-01   0.27915E-03
   0.95900E+02   0.10087E-01   0.18451E-03
   0.98130E+02   0.72702E-02   0.98451E-04
   0.10036E+03   0.36409E-02   0.82304E-03
   0.10259E+03   0.17448E-03   0.14342E-02
   0.10482E+03   0.19908E-03   0.18522E-02
   0.10705E+03   0.26670E-03   0.27640E-02
   0.10928E+03   0.30037E-03   0.36212E-02
   0.11151E+03   0.30460E-03   0.40893E-02
   0.11374E+03   0.32993E-03   0.50702E-02
   0.11597E+03   0.33165E-03   0.57417E-02
   0.11820E+03   0.34650E-03   0.67770E-02
   0.12043E+03   0.35224E-03   0.77564E-02
   0.12266E+03   0.36870E-03   0.91103E-02
   0.12489E+03   0.37957E-03   0.10615E-01
   0.12712E+03   0.39025E-03   0.12303E-01
   0.12935E+03   0.41506E-03   0.14746E-01
   0.13158E+03   0.41386E-03   0.17077E-01
   0.13381E+03   0.44311E-03   0.20566E-01
   0.13604E+03   0.49657E-03   0.25982E-01
   0.13827E+03   0.49238E-03   0.30490E-01
   0.14050E+03   0.49588E-03   0.38735E-01
   0.14274E+03   0.51746E-03   0.51341E-01
   0.14497E+03   0.54487E-03   0.81258E-01
   0.14720E+03   0.53170E-03   0.79830E-01
   0.14943E+03   0.47040E-03   0.80111E-01
   0.15166E+03   0.39054E-03   0.79486E-01
   0.15389E+03   0.33039E-03   0.56669E-01
   0.15612E+03   0.28149E-03   0.43673E-01
   0.15835E+03   0.25171E-03   0.37540E-01
   0.16058E+03   0.22686E-03   0.31370E-01
   0.16281E+03   0.20893E-03   0.27441E-01
   0.16504E+03   0.18851E-03   0.21523E-01
   0.16727E+03   0.18075E-03   0.21225E-01
   0.16950E+03   0.16622E-03   0.18740E-01
   0.17173E+03   0.14734E-03   0.17048E-01
   0.17396E+03   0.11409E-03   0.12700E-01
   0.17619E+03   0.70593E-04   0.81939E-02
   0.17842E+03   0.35867E-04   0.39348E-02
   0.18065E+03   0.57400E-04   0.60101E-02
   0.18288E+03   0.10371E-03   0.10667E-01
   0.18511E+03   0.15236E-03   0.15241E-01
   0.18734E+03   0.22925E-03   0.21814E-01
   0.18957E+03   0.34634E-03   0.29319E-01
   0.19180E+03   0.51742E-03   0.37404E-01
   0.19403E+03   0.78911E-03   0.47097E-01
   0.19626E+03   0.20063E-02   0.70154E-01
   0.19849E+03   0.54372E-02   0.11182E+00
   0.20072E+03   0.24902E-02   0.59215E-01
   0.20295E+03   0.84142E-05   0.10388E-02
   0.20518E+03   0.00000E+00   0.00000E+00
   0.20741E+03   0.00000E+00   0.00000E+00
   0.20964E+03   0.00000E+00   0.00000E+00
   0.21187E+03   0.00000E+00   0.00000E+00
   0.21410E+03   0.00000E+00   0.00000E+00
   0.21633E+03   0.00000E+00   0.00000E+00
   0.21856E+03   0.00000E+00   0.00000E+00
   0.22079E+03   0.00000E+00   0.00000E+00
   0.22302E+03   0.00000E+00   0.00000E+00
