  350

    1
0.0000000000e+00 0.0000000000e+00 0.0000000000e+00
0.0000000000e+00 0.0000000000e+00 0.0000000000e+00
     1      1      1
 1  1  1     0.0000000000e+00
 1  1  2     0.0000000000e+00
 1  1  3     0.0000000000e+00
 1  2  1     0.0000000000e+00
 1  2  2     0.0000000000e+00
 1  2  3     0.0000000000e+00
 1  3  1     0.0000000000e+00
 1  3  2     0.0000000000e+00
 1  3  3     0.0000000000e+00
 2  1  1     0.0000000000e+00
 2  1  2     0.0000000000e+00
 2  1  3     0.0000000000e+00
 2  2  1     0.0000000000e+00
 2  2  2     0.0000000000e+00
 2  2  3     0.0000000000e+00
 2  3  1     0.0000000000e+00
 2  3  2     0.0000000000e+00
 2  3  3     0.0000000000e+00
 3  1  1     0.0000000000e+00
 3  1  2     0.0000000000e+00
 3  1  3     0.0000000000e+00
 3  2  1     0.0000000000e+00
 3  2  2     0.0000000000e+00
 3  2  3     0.0000000000e+00
 3  3  1     0.0000000000e+00
 3  3  2     0.0000000000e+00
 3  3  3     0.0000000000e+00

    2
0.0000000000e+00 0.0000000000e+00 0.0000000000e+00
-1.9551243177e+00 0.0000000000e+00 1.9551243177e+00
     1      1      1
 1  1  1     3.6124000827e-01
 1  1  2     0.0000000000e+00
 1  1  3    -4.1532607380e-01
 1  2  1     0.0000000000e+00
 1  2  2    -1.1440937458e-01
 1  2  3     0.0000000000e+00
 1  3  1    -6.7699955431e-01
 1  3  2     0.0000000000e+00
 1  3  3     6.7699955431e-01
 2  1  1     0.0000000000e+00
 2  1  2    -1.1440937458e-01
 2  1  3     0.0000000000e+00
 2  2  1    -2.7649486594e-01
 2  2  2     0.0000000000e+00
 2  2  3     2.7649486594e-01
 2  3  1     0.0000000000e+00
 2  3  2     1.1440937458e-01
 2  3  3     0.0000000000e+00
 3  1  1    -6.7699955431e-01
 3  1  2     0.0000000000e+00
 3  1  3     6.7699955431e-01
 3  2  1     0.0000000000e+00
 3  2  2     1.1440937458e-01
 3  2  3     0.0000000000e+00
 3  3  1     4.1532607380e-01
 3  3  2     0.0000000000e+00
 3  3  3    -3.6124000827e-01

    3
0.0000000000e+00 0.0000000000e+00 0.0000000000e+00
1.9551243177e+00 0.0000000000e+00 -1.9551243177e+00
     1      1      1
 1  1  1    -3.6124000827e-01
 1  1  2     0.0000000000e+00
 1  1  3     4.1532607380e-01
 1  2  1     0.0000000000e+00
 1  2  2     1.1440937458e-01
 1  2  3     0.0000000000e+00
 1  3  1     6.7699955431e-01
 1  3  2     0.0000000000e+00
 1  3  3    -6.7699955431e-01
 2  1  1     0.0000000000e+00
 2  1  2     1.1440937458e-01
 2  1  3     0.0000000000e+00
 2  2  1     2.7649486594e-01
 2  2  2     0.0000000000e+00
 2  2  3    -2.7649486594e-01
 2  3  1     0.0000000000e+00
 2  3  2    -1.1440937458e-01
 2  3  3     0.0000000000e+00
 3  1  1     6.7699955431e-01
 3  1  2     0.0000000000e+00
 3  1  3    -6.7699955431e-01
 3  2  1     0.0000000000e+00
 3  2  2    -1.1440937458e-01
 3  2  3     0.0000000000e+00
 3  3  1    -4.1532607380e-01
 3  3  2     0.0000000000e+00
 3  3  3     3.6124000827e-01

    4
0.0000000000e+00 0.0000000000e+00 0.0000000000e+00
1.9551243177e+00 0.0000000000e+00 -1.9551243177e+00
     1      1      2
 1  1  1     0.0000000000e+00
 1  1  2     4.0711037957e-01
 1  1  3     0.0000000000e+00
 1  2  1    -1.2809481722e-01
 1  2  2     0.0000000000e+00
 1  2  3     0.0000000000e+00
 1  3  1     0.0000000000e+00
 1  3  2     0.0000000000e+00
 1  3  3     0.0000000000e+00
 2  1  1    -1.2809481722e-01
 2  1  2     0.0000000000e+00
 2  1  3     0.0000000000e+00
 2  2  1     0.0000000000e+00
 2  2  2    -5.0661971662e+00
 2  2  3     0.0000000000e+00
 2  3  1     0.0000000000e+00
 2  3  2     0.0000000000e+00
 2  3  3    -1.2809481722e-01
 3  1  1     0.0000000000e+00
 3  1  2     0.0000000000e+00
 3  1  3     0.0000000000e+00
 3  2  1     0.0000000000e+00
 3  2  2     0.0000000000e+00
 3  2  3    -1.2809481722e-01
 3  3  1     0.0000000000e+00
 3  3  2     4.0711037957e-01
 3  3  3     0.0000000000e+00

    5
0.0000000000e+00 0.0000000000e+00 0.0000000000e+00
0.0000000000e+00 1.9551243177e+00 1.9551243177e+00
     1      1      1
 1  1  1     0.0000000000e+00
 1  1  2     2.7649486594e-01
 1  1  3     2.7649486594e-01
 1  2  1     1.1440937458e-01
 1  2  2     0.0000000000e+00
 1  2  3     0.0000000000e+00
 1  3  1     1.1440937458e-01
 1  3  2     0.0000000000e+00
 1  3  3     0.0000000000e+00
 2  1  1     1.1440937458e-01
 2  1  2     0.0000000000e+00
 2  1  3     0.0000000000e+00
 2  2  1     0.0000000000e+00
 2  2  2    -3.6124000827e-01
 2  2  3    -4.1532607380e-01
 2  3  1     0.0000000000e+00
 2  3  2    -6.7699955431e-01
 2  3  3    -6.7699955431e-01
 3  1  1     1.1440937458e-01
 3  1  2     0.0000000000e+00
 3  1  3     0.0000000000e+00
 3  2  1     0.0000000000e+00
 3  2  2    -6.7699955431e-01
 3  2  3    -6.7699955431e-01
 3  3  1     0.0000000000e+00
 3  3  2    -4.1532607380e-01
 3  3  3    -3.6124000827e-01

    6
0.0000000000e+00 0.0000000000e+00 0.0000000000e+00
1.9551243177e+00 1.9551243177e+00 -3.8608695783e-16
     1      1      1
 1  1  1    -3.6124000827e-01
 1  1  2    -4.1532607380e-01
 1  1  3     0.0000000000e+00
 1  2  1    -6.7699955431e-01
 1  2  2    -6.7699955431e-01
 1  2  3     0.0000000000e+00
 1  3  1     0.0000000000e+00
 1  3  2     0.0000000000e+00
 1  3  3     1.1440937458e-01
 2  1  1    -6.7699955431e-01
 2  1  2    -6.7699955431e-01
 2  1  3     0.0000000000e+00
 2  2  1    -4.1532607380e-01
 2  2  2    -3.6124000827e-01
 2  2  3     0.0000000000e+00
 2  3  1     0.0000000000e+00
 2  3  2     0.0000000000e+00
 2  3  3     1.1440937458e-01
 3  1  1     0.0000000000e+00
 3  1  2     0.0000000000e+00
 3  1  3     1.1440937458e-01
 3  2  1     0.0000000000e+00
 3  2  2     0.0000000000e+00
 3  2  3     1.1440937458e-01
 3  3  1     2.7649486594e-01
 3  3  2     2.7649486594e-01
 3  3  3     0.0000000000e+00

    7
0.0000000000e+00 0.0000000000e+00 0.0000000000e+00
0.0000000000e+00 -1.9551243177e+00 -1.9551243177e+00
     1      1      1
 1  1  1     0.0000000000e+00
 1  1  2    -2.7649486594e-01
 1  1  3    -2.7649486594e-01
 1  2  1    -1.1440937458e-01
 1  2  2     0.0000000000e+00
 1  2  3     0.0000000000e+00
 1  3  1    -1.1440937458e-01
 1  3  2     0.0000000000e+00
 1  3  3     0.0000000000e+00
 2  1  1    -1.1440937458e-01
 2  1  2     0.0000000000e+00
 2  1  3     0.0000000000e+00
 2  2  1     0.0000000000e+00
 2  2  2     3.6124000827e-01
 2  2  3     4.1532607380e-01
 2  3  1     0.0000000000e+00
 2  3  2     6.7699955431e-01
 2  3  3     6.7699955431e-01
 3  1  1    -1.1440937458e-01
 3  1  2     0.0000000000e+00
 3  1  3     0.0000000000e+00
 3  2  1     0.0000000000e+00
 3  2  2     6.7699955431e-01
 3  2  3     6.7699955431e-01
 3  3  1     0.0000000000e+00
 3  3  2     4.1532607380e-01
 3  3  3     3.6124000827e-01

    8
0.0000000000e+00 0.0000000000e+00 0.0000000000e+00
0.0000000000e+00 -1.9551243177e+00 -1.9551243177e+00
     1      1      2
 1  1  1     5.0661971662e+00
 1  1  2     0.0000000000e+00
 1  1  3     0.0000000000e+00
 1  2  1     0.0000000000e+00
 1  2  2     1.2809481722e-01
 1  2  3     0.0000000000e+00
 1  3  1     0.0000000000e+00
 1  3  2     0.0000000000e+00
 1  3  3     1.2809481722e-01
 2  1  1     0.0000000000e+00
 2  1  2     1.2809481722e-01
 2  1  3     0.0000000000e+00
 2  2  1    -4.0711037957e-01
 2  2  2     0.0000000000e+00
 2  2  3     0.0000000000e+00
 2  3  1     0.0000000000e+00
 2  3  2     0.0000000000e+00
 2  3  3     0.0000000000e+00
 3  1  1     0.0000000000e+00
 3  1  2     0.0000000000e+00
 3  1  3     1.2809481722e-01
 3  2  1     0.0000000000e+00
 3  2  2     0.0000000000e+00
 3  2  3     0.0000000000e+00
 3  3  1    -4.0711037957e-01
 3  3  2     0.0000000000e+00
 3  3  3     0.0000000000e+00

    9
0.0000000000e+00 0.0000000000e+00 0.0000000000e+00
-1.9551243177e+00 -1.9551243177e+00 -2.1706240336e-16
     1      1      1
 1  1  1     3.6124000827e-01
 1  1  2     4.1532607380e-01
 1  1  3     0.0000000000e+00
 1  2  1     6.7699955431e-01
 1  2  2     6.7699955431e-01
 1  2  3     0.0000000000e+00
 1  3  1     0.0000000000e+00
 1  3  2     0.0000000000e+00
 1  3  3    -1.1440937458e-01
 2  1  1     6.7699955431e-01
 2  1  2     6.7699955431e-01
 2  1  3     0.0000000000e+00
 2  2  1     4.1532607380e-01
 2  2  2     3.6124000827e-01
 2  2  3     0.0000000000e+00
 2  3  1     0.0000000000e+00
 2  3  2     0.0000000000e+00
 2  3  3    -1.1440937458e-01
 3  1  1     0.0000000000e+00
 3  1  2     0.0000000000e+00
 3  1  3    -1.1440937458e-01
 3  2  1     0.0000000000e+00
 3  2  2     0.0000000000e+00
 3  2  3    -1.1440937458e-01
 3  3  1    -2.7649486594e-01
 3  3  2    -2.7649486594e-01
 3  3  3     0.0000000000e+00

   10
0.0000000000e+00 0.0000000000e+00 0.0000000000e+00
1.9551243177e+00 -1.9551243177e+00 -3.9102486355e+00
     1      1      2
 1  1  1     0.0000000000e+00
 1  1  2     0.0000000000e+00
 1  1  3    -4.0711037957e-01
 1  2  1     0.0000000000e+00
 1  2  2     0.0000000000e+00
 1  2  3     0.0000000000e+00
 1  3  1     1.2809481722e-01
 1  3  2     0.0000000000e+00
 1  3  3     0.0000000000e+00
 2  1  1     0.0000000000e+00
 2  1  2     0.0000000000e+00
 2  1  3     0.0000000000e+00
 2  2  1     0.0000000000e+00
 2  2  2     0.0000000000e+00
 2  2  3    -4.0711037957e-01
 2  3  1     0.0000000000e+00
 2  3  2     1.2809481722e-01
 2  3  3     0.0000000000e+00
 3  1  1     1.2809481722e-01
 3  1  2     0.0000000000e+00
 3  1  3     0.0000000000e+00
 3  2  1     0.0000000000e+00
 3  2  2     1.2809481722e-01
 3  2  3     0.0000000000e+00
 3  3  1     0.0000000000e+00
 3  3  2     0.0000000000e+00
 3  3  3     5.0661971662e+00

   11
0.0000000000e+00 0.0000000000e+00 0.0000000000e+00
-1.9551243177e+00 1.9551243177e+00 0.0000000000e+00
     1      1      1
 1  1  1     3.6124000827e-01
 1  1  2    -4.1532607380e-01
 1  1  3     0.0000000000e+00
 1  2  1    -6.7699955431e-01
 1  2  2     6.7699955431e-01
 1  2  3     0.0000000000e+00
 1  3  1     0.0000000000e+00
 1  3  2     0.0000000000e+00
 1  3  3    -1.1440937458e-01
 2  1  1    -6.7699955431e-01
 2  1  2     6.7699955431e-01
 2  1  3     0.0000000000e+00
 2  2  1     4.1532607380e-01
 2  2  2    -3.6124000827e-01
 2  2  3     0.0000000000e+00
 2  3  1     0.0000000000e+00
 2  3  2     0.0000000000e+00
 2  3  3     1.1440937458e-01
 3  1  1     0.0000000000e+00
 3  1  2     0.0000000000e+00
 3  1  3    -1.1440937458e-01
 3  2  1     0.0000000000e+00
 3  2  2     0.0000000000e+00
 3  2  3     1.1440937458e-01
 3  3  1    -2.7649486594e-01
 3  3  2     2.7649486594e-01
 3  3  3     0.0000000000e+00

   12
0.0000000000e+00 0.0000000000e+00 0.0000000000e+00
3.8608695783e-16 1.9551243177e+00 -1.9551243177e+00
     1      1      1
 1  1  1     0.0000000000e+00
 1  1  2     2.7649486594e-01
 1  1  3    -2.7649486594e-01
 1  2  1     1.1440937458e-01
 1  2  2     0.0000000000e+00
 1  2  3     0.0000000000e+00
 1  3  1    -1.1440937458e-01
 1  3  2     0.0000000000e+00
 1  3  3     0.0000000000e+00
 2  1  1     1.1440937458e-01
 2  1  2     0.0000000000e+00
 2  1  3     0.0000000000e+00
 2  2  1     0.0000000000e+00
 2  2  2    -3.6124000827e-01
 2  2  3     4.1532607380e-01
 2  3  1     0.0000000000e+00
 2  3  2     6.7699955431e-01
 2  3  3    -6.7699955431e-01
 3  1  1    -1.1440937458e-01
 3  1  2     0.0000000000e+00
 3  1  3     0.0000000000e+00
 3  2  1     0.0000000000e+00
 3  2  2     6.7699955431e-01
 3  2  3    -6.7699955431e-01
 3  3  1     0.0000000000e+00
 3  3  2    -4.1532607380e-01
 3  3  3     3.6124000827e-01

   13
0.0000000000e+00 0.0000000000e+00 0.0000000000e+00
-1.9551243177e+00 -3.8608695783e-16 -1.9551243177e+00
     1      1      1
 1  1  1     3.6124000827e-01
 1  1  2     0.0000000000e+00
 1  1  3     4.1532607380e-01
 1  2  1     0.0000000000e+00
 1  2  2    -1.1440937458e-01
 1  2  3     0.0000000000e+00
 1  3  1     6.7699955431e-01
 1  3  2     0.0000000000e+00
 1  3  3     6.7699955431e-01
 2  1  1     0.0000000000e+00
 2  1  2    -1.1440937458e-01
 2  1  3     0.0000000000e+00
 2  2  1    -2.7649486594e-01
 2  2  2     0.0000000000e+00
 2  2  3    -2.7649486594e-01
 2  3  1     0.0000000000e+00
 2  3  2    -1.1440937458e-01
 2  3  3     0.0000000000e+00
 3  1  1     6.7699955431e-01
 3  1  2     0.0000000000e+00
 3  1  3     6.7699955431e-01
 3  2  1     0.0000000000e+00
 3  2  2    -1.1440937458e-01
 3  2  3     0.0000000000e+00
 3  3  1     4.1532607380e-01
 3  3  2     0.0000000000e+00
 3  3  3     3.6124000827e-01

   14
0.0000000000e+00 0.0000000000e+00 0.0000000000e+00
1.9551243177e+00 -1.9551243177e+00 0.0000000000e+00
     1      1      1
 1  1  1    -3.6124000827e-01
 1  1  2     4.1532607380e-01
 1  1  3     0.0000000000e+00
 1  2  1     6.7699955431e-01
 1  2  2    -6.7699955431e-01
 1  2  3     0.0000000000e+00
 1  3  1     0.0000000000e+00
 1  3  2     0.0000000000e+00
 1  3  3     1.1440937458e-01
 2  1  1     6.7699955431e-01
 2  1  2    -6.7699955431e-01
 2  1  3     0.0000000000e+00
 2  2  1    -4.1532607380e-01
 2  2  2     3.6124000827e-01
 2  2  3     0.0000000000e+00
 2  3  1     0.0000000000e+00
 2  3  2     0.0000000000e+00
 2  3  3    -1.1440937458e-01
 3  1  1     0.0000000000e+00
 3  1  2     0.0000000000e+00
 3  1  3     1.1440937458e-01
 3  2  1     0.0000000000e+00
 3  2  2     0.0000000000e+00
 3  2  3    -1.1440937458e-01
 3  3  1     2.7649486594e-01
 3  3  2    -2.7649486594e-01
 3  3  3     0.0000000000e+00

   15
0.0000000000e+00 0.0000000000e+00 0.0000000000e+00
1.9551243177e+00 -1.9551243177e+00 0.0000000000e+00
     1      1      2
 1  1  1     0.0000000000e+00
 1  1  2     0.0000000000e+00
 1  1  3     4.0711037957e-01
 1  2  1     0.0000000000e+00
 1  2  2     0.0000000000e+00
 1  2  3     0.0000000000e+00
 1  3  1    -1.2809481722e-01
 1  3  2     0.0000000000e+00
 1  3  3     0.0000000000e+00
 2  1  1     0.0000000000e+00
 2  1  2     0.0000000000e+00
 2  1  3     0.0000000000e+00
 2  2  1     0.0000000000e+00
 2  2  2     0.0000000000e+00
 2  2  3     4.0711037957e-01
 2  3  1     0.0000000000e+00
 2  3  2    -1.2809481722e-01
 2  3  3     0.0000000000e+00
 3  1  1    -1.2809481722e-01
 3  1  2     0.0000000000e+00
 3  1  3     0.0000000000e+00
 3  2  1     0.0000000000e+00
 3  2  2    -1.2809481722e-01
 3  2  3     0.0000000000e+00
 3  3  1     0.0000000000e+00
 3  3  2     0.0000000000e+00
 3  3  3    -5.0661971662e+00

   16
0.0000000000e+00 0.0000000000e+00 0.0000000000e+00
2.1706240336e-16 -1.9551243177e+00 1.9551243177e+00
     1      1      1
 1  1  1     0.0000000000e+00
 1  1  2    -2.7649486594e-01
 1  1  3     2.7649486594e-01
 1  2  1    -1.1440937458e-01
 1  2  2     0.0000000000e+00
 1  2  3     0.0000000000e+00
 1  3  1     1.1440937458e-01
 1  3  2     0.0000000000e+00
 1  3  3     0.0000000000e+00
 2  1  1    -1.1440937458e-01
 2  1  2     0.0000000000e+00
 2  1  3     0.0000000000e+00
 2  2  1     0.0000000000e+00
 2  2  2     3.6124000827e-01
 2  2  3    -4.1532607380e-01
 2  3  1     0.0000000000e+00
 2  3  2    -6.7699955431e-01
 2  3  3     6.7699955431e-01
 3  1  1     1.1440937458e-01
 3  1  2     0.0000000000e+00
 3  1  3     0.0000000000e+00
 3  2  1     0.0000000000e+00
 3  2  2    -6.7699955431e-01
 3  2  3     6.7699955431e-01
 3  3  1     0.0000000000e+00
 3  3  2     4.1532607380e-01
 3  3  3    -3.6124000827e-01

   17
0.0000000000e+00 0.0000000000e+00 0.0000000000e+00
3.9102486355e+00 -1.9551243177e+00 -1.9551243177e+00
     1      1      2
 1  1  1    -5.0661971662e+00
 1  1  2     0.0000000000e+00
 1  1  3     0.0000000000e+00
 1  2  1     0.0000000000e+00
 1  2  2    -1.2809481722e-01
 1  2  3     0.0000000000e+00
 1  3  1     0.0000000000e+00
 1  3  2     0.0000000000e+00
 1  3  3    -1.2809481722e-01
 2  1  1     0.0000000000e+00
 2  1  2    -1.2809481722e-01
 2  1  3     0.0000000000e+00
 2  2  1     4.0711037957e-01
 2  2  2     0.0000000000e+00
 2  2  3     0.0000000000e+00
 2  3  1     0.0000000000e+00
 2  3  2     0.0000000000e+00
 2  3  3     0.0000000000e+00
 3  1  1     0.0000000000e+00
 3  1  2     0.0000000000e+00
 3  1  3    -1.2809481722e-01
 3  2  1     0.0000000000e+00
 3  2  2     0.0000000000e+00
 3  2  3     0.0000000000e+00
 3  3  1     4.0711037957e-01
 3  3  2     0.0000000000e+00
 3  3  3     0.0000000000e+00

   18
0.0000000000e+00 0.0000000000e+00 0.0000000000e+00
1.9551243177e+00 -2.1706240336e-16 1.9551243177e+00
     1      1      1
 1  1  1    -3.6124000827e-01
 1  1  2     0.0000000000e+00
 1  1  3    -4.1532607380e-01
 1  2  1     0.0000000000e+00
 1  2  2     1.1440937458e-01
 1  2  3     0.0000000000e+00
 1  3  1    -6.7699955431e-01
 1  3  2     0.0000000000e+00
 1  3  3    -6.7699955431e-01
 2  1  1     0.0000000000e+00
 2  1  2     1.1440937458e-01
 2  1  3     0.0000000000e+00
 2  2  1     2.7649486594e-01
 2  2  2     0.0000000000e+00
 2  2  3     2.7649486594e-01
 2  3  1     0.0000000000e+00
 2  3  2     1.1440937458e-01
 2  3  3     0.0000000000e+00
 3  1  1    -6.7699955431e-01
 3  1  2     0.0000000000e+00
 3  1  3    -6.7699955431e-01
 3  2  1     0.0000000000e+00
 3  2  2     1.1440937458e-01
 3  2  3     0.0000000000e+00
 3  3  1    -4.1532607380e-01
 3  3  2     0.0000000000e+00
 3  3  3    -3.6124000827e-01

   19
0.0000000000e+00 0.0000000000e+00 0.0000000000e+00
1.9551243177e+00 -3.9102486355e+00 -1.9551243177e+00
     1      1      2
 1  1  1     0.0000000000e+00
 1  1  2    -4.0711037957e-01
 1  1  3     0.0000000000e+00
 1  2  1     1.2809481722e-01
 1  2  2     0.0000000000e+00
 1  2  3     0.0000000000e+00
 1  3  1     0.0000000000e+00
 1  3  2     0.0000000000e+00
 1  3  3     0.0000000000e+00
 2  1  1     1.2809481722e-01
 2  1  2     0.0000000000e+00
 2  1  3     0.0000000000e+00
 2  2  1     0.0000000000e+00
 2  2  2     5.0661971662e+00
 2  2  3     0.0000000000e+00
 2  3  1     0.0000000000e+00
 2  3  2     0.0000000000e+00
 2  3  3     1.2809481722e-01
 3  1  1     0.0000000000e+00
 3  1  2     0.0000000000e+00
 3  1  3     0.0000000000e+00
 3  2  1     0.0000000000e+00
 3  2  2     0.0000000000e+00
 3  2  3     1.2809481722e-01
 3  3  1     0.0000000000e+00
 3  3  2    -4.0711037957e-01
 3  3  3     0.0000000000e+00

   20
-1.9551243177e+00 0.0000000000e+00 1.9551243177e+00
0.0000000000e+00 0.0000000000e+00 0.0000000000e+00
     1      1      1
 1  1  1     3.6124000827e-01
 1  1  2     0.0000000000e+00
 1  1  3    -6.7699955431e-01
 1  2  1     0.0000000000e+00
 1  2  2    -1.1440937458e-01
 1  2  3     0.0000000000e+00
 1  3  1    -4.1532607380e-01
 1  3  2     0.0000000000e+00
 1  3  3     6.7699955431e-01
 2  1  1     0.0000000000e+00
 2  1  2    -2.7649486594e-01
 2  1  3     0.0000000000e+00
 2  2  1    -1.1440937458e-01
 2  2  2     0.0000000000e+00
 2  2  3     1.1440937458e-01
 2  3  1     0.0000000000e+00
 2  3  2     2.7649486594e-01
 2  3  3     0.0000000000e+00
 3  1  1    -6.7699955431e-01
 3  1  2     0.0000000000e+00
 3  1  3     4.1532607380e-01
 3  2  1     0.0000000000e+00
 3  2  2     1.1440937458e-01
 3  2  3     0.0000000000e+00
 3  3  1     6.7699955431e-01
 3  3  2     0.0000000000e+00
 3  3  3    -3.6124000827e-01

   21
-1.9551243177e+00 0.0000000000e+00 1.9551243177e+00
-1.9551243177e+00 0.0000000000e+00 1.9551243177e+00
     1      1      1
 1  1  1    -3.6124000827e-01
 1  1  2     0.0000000000e+00
 1  1  3     6.7699955431e-01
 1  2  1     0.0000000000e+00
 1  2  2     2.7649486594e-01
 1  2  3     0.0000000000e+00
 1  3  1     6.7699955431e-01
 1  3  2     0.0000000000e+00
 1  3  3    -4.1532607380e-01
 2  1  1     0.0000000000e+00
 2  1  2     1.1440937458e-01
 2  1  3     0.0000000000e+00
 2  2  1     1.1440937458e-01
 2  2  2     0.0000000000e+00
 2  2  3    -1.1440937458e-01
 2  3  1     0.0000000000e+00
 2  3  2    -1.1440937458e-01
 2  3  3     0.0000000000e+00
 3  1  1     4.1532607380e-01
 3  1  2     0.0000000000e+00
 3  1  3    -6.7699955431e-01
 3  2  1     0.0000000000e+00
 3  2  2    -2.7649486594e-01
 3  2  3     0.0000000000e+00
 3  3  1    -6.7699955431e-01
 3  3  2     0.0000000000e+00
 3  3  3     3.6124000827e-01

   22
-1.9551243177e+00 0.0000000000e+00 1.9551243177e+00
0.0000000000e+00 1.9551243177e+00 1.9551243177e+00
     1      1      1
 1  1  1     1.7033559109e-01
 1  1  2    -5.1691281676e-02
 1  1  3    -4.5361860069e-02
 1  2  1    -6.4497917662e-03
 1  2  2    -4.5361860069e-02
 1  2  3    -1.0284413047e-02
 1  3  1     6.4497917662e-03
 1  3  2     1.2212740493e-02
 1  3  3     6.4497917662e-03
 2  1  1     4.5361860069e-02
 2  1  2     5.1691281676e-02
 2  1  3     1.2212740493e-02
 2  2  1     6.4497917662e-03
 2  2  2    -1.7033559109e-01
 2  2  3     6.4497917662e-03
 2  3  1    -1.0284413047e-02
 2  3  2    -4.5361860069e-02
 2  3  3    -6.4497917662e-03
 3  1  1     5.1691281676e-02
 3  1  2     5.0779289418e-02
 3  1  3     5.1691281676e-02
 3  2  1     1.2212740493e-02
 3  2  2     5.1691281676e-02
 3  2  3     4.5361860069e-02
 3  3  1    -4.5361860069e-02
 3  3  2    -5.1691281676e-02
 3  3  3     1.7033559109e-01

   23
-1.9551243177e+00 0.0000000000e+00 1.9551243177e+00
0.0000000000e+00 -1.9551243177e+00 -1.9551243177e+00
     1      1      2
 1  1  1    -5.7854299762e-03
 1  1  2     0.0000000000e+00
 1  1  3     7.9881123613e-02
 1  2  1     0.0000000000e+00
 1  2  2    -1.5204792483e-02
 1  2  3     0.0000000000e+00
 1  3  1    -1.9343232384e-01
 1  3  2     0.0000000000e+00
 1  3  3    -1.9343232384e-01
 2  1  1     0.0000000000e+00
 2  1  2    -4.7225584611e-02
 2  1  3     0.0000000000e+00
 2  2  1    -7.2627137455e-02
 2  2  2     0.0000000000e+00
 2  2  3    -7.2627137455e-02
 2  3  1     0.0000000000e+00
 2  3  2    -1.5204792483e-02
 2  3  3     0.0000000000e+00
 3  1  1    -2.2241823147e-02
 3  1  2     0.0000000000e+00
 3  1  3    -2.2241823147e-02
 3  2  1     0.0000000000e+00
 3  2  2    -4.7225584611e-02
 3  2  3     0.0000000000e+00
 3  3  1     7.9881123613e-02
 3  3  2     0.0000000000e+00
 3  3  3    -5.7854299762e-03

   24
-1.9551243177e+00 0.0000000000e+00 1.9551243177e+00
-1.9551243177e+00 -1.9551243177e+00 -2.1706240336e-16
     1      1      1
 1  1  1    -1.7033559109e-01
 1  1  2     5.1691281676e-02
 1  1  3     4.5361860069e-02
 1  2  1    -4.5361860069e-02
 1  2  2    -5.1691281676e-02
 1  2  3    -1.2212740493e-02
 1  3  1    -5.1691281676e-02
 1  3  2    -5.0779289418e-02
 1  3  3    -5.1691281676e-02
 2  1  1     6.4497917662e-03
 2  1  2     4.5361860069e-02
 2  1  3     1.0284413047e-02
 2  2  1    -6.4497917662e-03
 2  2  2     1.7033559109e-01
 2  2  3    -6.4497917662e-03
 2  3  1    -1.2212740493e-02
 2  3  2    -5.1691281676e-02
 2  3  3    -4.5361860069e-02
 3  1  1    -6.4497917662e-03
 3  1  2    -1.2212740493e-02
 3  1  3    -6.4497917662e-03
 3  2  1     1.0284413047e-02
 3  2  2     4.5361860069e-02
 3  2  3     6.4497917662e-03
 3  3  1     4.5361860069e-02
 3  3  2     5.1691281676e-02
 3  3  3    -1.7033559109e-01

   25
-1.9551243177e+00 0.0000000000e+00 1.9551243177e+00
-1.9551243177e+00 1.9551243177e+00 0.0000000000e+00
     1      1      1
 1  1  1    -1.7033559109e-01
 1  1  2    -5.1691281676e-02
 1  1  3     4.5361860069e-02
 1  2  1     4.5361860069e-02
 1  2  2    -5.1691281676e-02
 1  2  3     1.2212740493e-02
 1  3  1    -5.1691281676e-02
 1  3  2     5.0779289418e-02
 1  3  3    -5.1691281676e-02
 2  1  1    -6.4497917662e-03
 2  1  2     4.5361860069e-02
 2  1  3    -1.0284413047e-02
 2  2  1    -6.4497917662e-03
 2  2  2    -1.7033559109e-01
 2  2  3    -6.4497917662e-03
 2  3  1     1.2212740493e-02
 2  3  2    -5.1691281676e-02
 2  3  3     4.5361860069e-02
 3  1  1    -6.4497917662e-03
 3  1  2     1.2212740493e-02
 3  1  3    -6.4497917662e-03
 3  2  1    -1.0284413047e-02
 3  2  2     4.5361860069e-02
 3  2  3    -6.4497917662e-03
 3  3  1     4.5361860069e-02
 3  3  2    -5.1691281676e-02
 3  3  3    -1.7033559109e-01

   26
-1.9551243177e+00 0.0000000000e+00 1.9551243177e+00
1.9551243177e+00 -1.9551243177e+00 0.0000000000e+00
     1      1      2
 1  1  1     5.7854299762e-03
 1  1  2     0.0000000000e+00
 1  1  3    -7.9881123613e-02
 1  2  1     0.0000000000e+00
 1  2  2     4.7225584611e-02
 1  2  3     0.0000000000e+00
 1  3  1     2.2241823147e-02
 1  3  2     0.0000000000e+00
 1  3  3     2.2241823147e-02
 2  1  1     0.0000000000e+00
 2  1  2     1.5204792483e-02
 2  1  3     0.0000000000e+00
 2  2  1     7.2627137455e-02
 2  2  2     0.0000000000e+00
 2  2  3     7.2627137455e-02
 2  3  1     0.0000000000e+00
 2  3  2     4.7225584611e-02
 2  3  3     0.0000000000e+00
 3  1  1     1.9343232384e-01
 3  1  2     0.0000000000e+00
 3  1  3     1.9343232384e-01
 3  2  1     0.0000000000e+00
 3  2  2     1.5204792483e-02
 3  2  3     0.0000000000e+00
 3  3  1    -7.9881123613e-02
 3  3  2     0.0000000000e+00
 3  3  3     5.7854299762e-03

   27
-1.9551243177e+00 0.0000000000e+00 1.9551243177e+00
2.1706240336e-16 -1.9551243177e+00 1.9551243177e+00
     1      1      1
 1  1  1     1.7033559109e-01
 1  1  2     5.1691281676e-02
 1  1  3    -4.5361860069e-02
 1  2  1     6.4497917662e-03
 1  2  2    -4.5361860069e-02
 1  2  3     1.0284413047e-02
 1  3  1     6.4497917662e-03
 1  3  2    -1.2212740493e-02
 1  3  3     6.4497917662e-03
 2  1  1    -4.5361860069e-02
 2  1  2     5.1691281676e-02
 2  1  3    -1.2212740493e-02
 2  2  1     6.4497917662e-03
 2  2  2     1.7033559109e-01
 2  2  3     6.4497917662e-03
 2  3  1     1.0284413047e-02
 2  3  2    -4.5361860069e-02
 2  3  3     6.4497917662e-03
 3  1  1     5.1691281676e-02
 3  1  2    -5.0779289418e-02
 3  1  3     5.1691281676e-02
 3  2  1    -1.2212740493e-02
 3  2  2     5.1691281676e-02
 3  2  3    -4.5361860069e-02
 3  3  1    -4.5361860069e-02
 3  3  2     5.1691281676e-02
 3  3  3     1.7033559109e-01

   28
1.9551243177e+00 0.0000000000e+00 -1.9551243177e+00
0.0000000000e+00 0.0000000000e+00 0.0000000000e+00
     1      1      1
 1  1  1    -3.6124000827e-01
 1  1  2     0.0000000000e+00
 1  1  3     6.7699955431e-01
 1  2  1     0.0000000000e+00
 1  2  2     1.1440937458e-01
 1  2  3     0.0000000000e+00
 1  3  1     4.1532607380e-01
 1  3  2     0.0000000000e+00
 1  3  3    -6.7699955431e-01
 2  1  1     0.0000000000e+00
 2  1  2     2.7649486594e-01
 2  1  3     0.0000000000e+00
 2  2  1     1.1440937458e-01
 2  2  2     0.0000000000e+00
 2  2  3    -1.1440937458e-01
 2  3  1     0.0000000000e+00
 2  3  2    -2.7649486594e-01
 2  3  3     0.0000000000e+00
 3  1  1     6.7699955431e-01
 3  1  2     0.0000000000e+00
 3  1  3    -4.1532607380e-01
 3  2  1     0.0000000000e+00
 3  2  2    -1.1440937458e-01
 3  2  3     0.0000000000e+00
 3  3  1    -6.7699955431e-01
 3  3  2     0.0000000000e+00
 3  3  3     3.6124000827e-01

   29
1.9551243177e+00 0.0000000000e+00 -1.9551243177e+00
1.9551243177e+00 0.0000000000e+00 -1.9551243177e+00
     1      1      1
 1  1  1     3.6124000827e-01
 1  1  2     0.0000000000e+00
 1  1  3    -6.7699955431e-01
 1  2  1     0.0000000000e+00
 1  2  2    -2.7649486594e-01
 1  2  3     0.0000000000e+00
 1  3  1    -6.7699955431e-01
 1  3  2     0.0000000000e+00
 1  3  3     4.1532607380e-01
 2  1  1     0.0000000000e+00
 2  1  2    -1.1440937458e-01
 2  1  3     0.0000000000e+00
 2  2  1    -1.1440937458e-01
 2  2  2     0.0000000000e+00
 2  2  3     1.1440937458e-01
 2  3  1     0.0000000000e+00
 2  3  2     1.1440937458e-01
 2  3  3     0.0000000000e+00
 3  1  1    -4.1532607380e-01
 3  1  2     0.0000000000e+00
 3  1  3     6.7699955431e-01
 3  2  1     0.0000000000e+00
 3  2  2     2.7649486594e-01
 3  2  3     0.0000000000e+00
 3  3  1     6.7699955431e-01
 3  3  2     0.0000000000e+00
 3  3  3    -3.6124000827e-01

   30
1.9551243177e+00 0.0000000000e+00 -1.9551243177e+00
1.9551243177e+00 1.9551243177e+00 -3.8608695783e-16
     1      1      1
 1  1  1     1.7033559109e-01
 1  1  2    -5.1691281676e-02
 1  1  3    -4.5361860069e-02
 1  2  1     4.5361860069e-02
 1  2  2     5.1691281676e-02
 1  2  3     1.2212740493e-02
 1  3  1     5.1691281676e-02
 1  3  2     5.0779289418e-02
 1  3  3     5.1691281676e-02
 2  1  1    -6.4497917662e-03
 2  1  2    -4.5361860069e-02
 2  1  3    -1.0284413047e-02
 2  2  1     6.4497917662e-03
 2  2  2    -1.7033559109e-01
 2  2  3     6.4497917662e-03
 2  3  1     1.2212740493e-02
 2  3  2     5.1691281676e-02
 2  3  3     4.5361860069e-02
 3  1  1     6.4497917662e-03
 3  1  2     1.2212740493e-02
 3  1  3     6.4497917662e-03
 3  2  1    -1.0284413047e-02
 3  2  2    -4.5361860069e-02
 3  2  3    -6.4497917662e-03
 3  3  1    -4.5361860069e-02
 3  3  2    -5.1691281676e-02
 3  3  3     1.7033559109e-01

   31
1.9551243177e+00 0.0000000000e+00 -1.9551243177e+00
0.0000000000e+00 -1.9551243177e+00 -1.9551243177e+00
     1      1      1
 1  1  1    -1.7033559109e-01
 1  1  2     5.1691281676e-02
 1  1  3     4.5361860069e-02
 1  2  1     6.4497917662e-03
 1  2  2     4.5361860069e-02
 1  2  3     1.0284413047e-02
 1  3  1    -6.4497917662e-03
 1  3  2    -1.2212740493e-02
 1  3  3    -6.4497917662e-03
 2  1  1    -4.5361860069e-02
 2  1  2    -5.1691281676e-02
 2  1  3    -1.2212740493e-02
 2  2  1    -6.4497917662e-03
 2  2  2     1.7033559109e-01
 2  2  3    -6.4497917662e-03
 2  3  1     1.0284413047e-02
 2  3  2     4.5361860069e-02
 2  3  3     6.4497917662e-03
 3  1  1    -5.1691281676e-02
 3  1  2    -5.0779289418e-02
 3  1  3    -5.1691281676e-02
 3  2  1    -1.2212740493e-02
 3  2  2    -5.1691281676e-02
 3  2  3    -4.5361860069e-02
 3  3  1     4.5361860069e-02
 3  3  2     5.1691281676e-02
 3  3  3    -1.7033559109e-01

   32
1.9551243177e+00 0.0000000000e+00 -1.9551243177e+00
1.9551243177e+00 -1.9551243177e+00 -3.9102486355e+00
     1      1      2
 1  1  1    -5.7854299762e-03
 1  1  2     0.0000000000e+00
 1  1  3     7.9881123613e-02
 1  2  1     0.0000000000e+00
 1  2  2    -4.7225584611e-02
 1  2  3     0.0000000000e+00
 1  3  1    -2.2241823147e-02
 1  3  2     0.0000000000e+00
 1  3  3    -2.2241823147e-02
 2  1  1     0.0000000000e+00
 2  1  2    -1.5204792483e-02
 2  1  3     0.0000000000e+00
 2  2  1    -7.2627137455e-02
 2  2  2     0.0000000000e+00
 2  2  3    -7.2627137455e-02
 2  3  1     0.0000000000e+00
 2  3  2    -4.7225584611e-02
 2  3  3     0.0000000000e+00
 3  1  1    -1.9343232384e-01
 3  1  2     0.0000000000e+00
 3  1  3    -1.9343232384e-01
 3  2  1     0.0000000000e+00