 2918

    1
0.0000000000e+00 0.0000000000e+00 0.0000000000e+00
0.0000000000e+00 0.0000000000e+00 0.0000000000e+00
     1      1      1
 1  1  1     0.0000000000e+00
 1  1  2     0.0000000000e+00
 1  1  3     0.0000000000e+00
 1  2  1     0.0000000000e+00
 1  2  2     0.0000000000e+00
 1  2  3     0.0000000000e+00
 1  3  1     0.0000000000e+00
 1  3  2     0.0000000000e+00
 1  3  3     0.0000000000e+00
 2  1  1     0.0000000000e+00
 2  1  2     0.0000000000e+00
 2  1  3     0.0000000000e+00
 2  2  1     0.0000000000e+00
 2  2  2     0.0000000000e+00
 2  2  3     0.0000000000e+00
 2  3  1     0.0000000000e+00
 2  3  2     0.0000000000e+00
 2  3  3     0.0000000000e+00
 3  1  1     0.0000000000e+00
 3  1  2     0.0000000000e+00
 3  1  3     0.0000000000e+00
 3  2  1     0.0000000000e+00
 3  2  2     0.0000000000e+00
 3  2  3     0.0000000000e+00
 3  3  1     0.0000000000e+00
 3  3  2     0.0000000000e+00
 3  3  3     0.0000000000e+00

    2
0.0000000000e+00 0.0000000000e+00 0.0000000000e+00
0.0000000000e+00 0.0000000000e+00 0.0000000000e+00
     1      1      2
 1  1  1     1.5333050847e-02
 1  1  2     2.0306450359e-02
 1  1  3     2.0306450359e-02
 1  2  1     1.3954042813e-02
 1  2  2    -1.3954042813e-02
 1  2  3    -1.6854886144e-02
 1  3  1     1.3954042813e-02
 1  3  2    -1.6854886144e-02
 1  3  3    -1.3954042813e-02
 2  1  1     1.3954042813e-02
 2  1  2    -1.3954042813e-02
 2  1  3    -1.6854886144e-02
 2  2  1    -2.0306450359e-02
 2  2  2    -1.5333050847e-02
 2  2  3     2.0306450359e-02
 2  3  1    -1.6854886144e-02
 2  3  2     1.3954042813e-02
 2  3  3     1.3954042813e-02
 3  1  1     1.3954042813e-02
 3  1  2    -1.6854886144e-02
 3  1  3    -1.3954042813e-02
 3  2  1    -1.6854886144e-02
 3  2  2     1.3954042813e-02
 3  2  3     1.3954042813e-02
 3  3  1    -2.0306450359e-02
 3  3  2     2.0306450359e-02
 3  3  3    -1.5333050847e-02

    3
0.0000000000e+00 0.0000000000e+00 0.0000000000e+00
-2.7366377070e+00 0.0000000000e+00 2.7366377070e+00
     1      1      1
 1  1  1     1.7997722832e-02
 1  1  2     0.0000000000e+00
 1  1  3    -1.3783899777e-01
 1  2  1     0.0000000000e+00
 1  2  2    -4.2459295002e-02
 1  2  3     0.0000000000e+00
 1  3  1    -1.0524786887e-01
 1  3  2     0.0000000000e+00
 1  3  3     1.0524786887e-01
 2  1  1     0.0000000000e+00
 2  1  2    -4.2459295002e-02
 2  1  3     0.0000000000e+00
 2  2  1    -4.9045091441e-02
 2  2  2     0.0000000000e+00
 2  2  3     4.9045091441e-02
 2  3  1     0.0000000000e+00
 2  3  2     4.2459295002e-02
 2  3  3     0.0000000000e+00
 3  1  1    -1.0524786887e-01
 3  1  2     0.0000000000e+00
 3  1  3     1.0524786887e-01
 3  2  1     0.0000000000e+00
 3  2  2     4.2459295002e-02
 3  2  3     0.0000000000e+00
 3  3  1     1.3783899777e-01
 3  3  2     0.0000000000e+00
 3  3  3    -1.7997722832e-02

    4
0.0000000000e+00 0.0000000000e+00 0.0000000000e+00
5.4732754140e+00 0.0000000000e+00 -5.4732754140e+00
     1      1      2
 1  1  1    -1.5333050847e-02
 1  1  2     2.0306450359e-02
 1  1  3    -2.0306450359e-02
 1  2  1     1.3954042813e-02
 1  2  2     1.3954042813e-02
 1  2  3    -1.6854886144e-02
 1  3  1    -1.3954042813e-02
 1  3  2    -1.6854886144e-02
 1  3  3     1.3954042813e-02
 2  1  1     1.3954042813e-02
 2  1  2     1.3954042813e-02
 2  1  3    -1.6854886144e-02
 2  2  1     2.0306450359e-02
 2  2  2    -1.5333050847e-02
 2  2  3    -2.0306450359e-02
 2  3  1    -1.6854886144e-02
 2  3  2    -1.3954042813e-02
 2  3  3     1.3954042813e-02
 3  1  1    -1.3954042813e-02
 3  1  2    -1.6854886144e-02
 3  1  3     1.3954042813e-02
 3  2  1    -1.6854886144e-02
 3  2  2    -1.3954042813e-02
 3  2  3     1.3954042813e-02
 3  3  1     2.0306450359e-02
 3  3  2     2.0306450359e-02
 3  3  3     1.5333050847e-02

    5
0.0000000000e+00 0.0000000000e+00 0.0000000000e+00
2.7366377070e+00 0.0000000000e+00 -2.7366377070e+00
     1      1      1
 1  1  1    -1.7997722832e-02
 1  1  2     0.0000000000e+00
 1  1  3     1.3783899777e-01
 1  2  1     0.0000000000e+00
 1  2  2     4.2459295002e-02
 1  2  3     0.0000000000e+00
 1  3  1     1.0524786887e-01
 1  3  2     0.0000000000e+00
 1  3  3    -1.0524786887e-01
 2  1  1     0.0000000000e+00
 2  1  2     4.2459295002e-02
 2  1  3     0.0000000000e+00
 2  2  1     4.9045091441e-02
 2  2  2     0.0000000000e+00
 2  2  3    -4.9045091441e-02
 2  3  1     0.0000000000e+00
 2  3  2    -4.2459295002e-02
 2  3  3     0.0000000000e+00
 3  1  1     1.0524786887e-01
 3  1  2     0.0000000000e+00
 3  1  3    -1.0524786887e-01
 3  2  1     0.0000000000e+00
 3  2  2    -4.2459295002e-02
 3  2  3     0.0000000000e+00
 3  3  1    -1.3783899777e-01
 3  3  2     0.0000000000e+00
 3  3  3     1.7997722832e-02

    6
0.0000000000e+00 0.0000000000e+00 0.0000000000e+00
2.7366377070e+00 0.0000000000e+00 -2.7366377070e+00
     1      1      2
 1  1  1     0.0000000000e+00
 1  1  2     3.5829290036e-01
 1  1  3     0.0000000000e+00
 1  2  1     2.2569039340e-01
 1  2  2     0.0000000000e+00
 1  2  3     0.0000000000e+00
 1  3  1     0.0000000000e+00
 1  3  2     0.0000000000e+00
 1  3  3     0.0000000000e+00
 2  1  1     2.2569039340e-01
 2  1  2     0.0000000000e+00
 2  1  3     0.0000000000e+00
 2  2  1     0.0000000000e+00
 2  2  2    -5.5862932262e+00
 2  2  3     0.0000000000e+00
 2  3  1     0.0000000000e+00
 2  3  2     0.0000000000e+00
 2  3  3     2.2569039340e-01
 3  1  1     0.0000000000e+00
 3  1  2     0.0000000000e+00
 3  1  3     0.0000000000e+00
 3  2  1     0.0000000000e+00
 3  2  2     0.0000000000e+00
 3  2  3     2.2569039340e-01
 3  3  1     0.0000000000e+00
 3  3  2     3.5829290036e-01
 3  3  3     0.0000000000e+00

    7
0.0000000000e+00 0.0000000000e+00 0.0000000000e+00
0.0000000000e+00 2.7366377070e+00 2.7366377070e+00
     1      1      1
 1  1  1     0.0000000000e+00
 1  1  2     4.9045091441e-02
 1  1  3     4.9045091441e-02
 1  2  1     4.2459295002e-02
 1  2  2     0.0000000000e+00
 1  2  3     0.0000000000e+00
 1  3  1     4.2459295002e-02
 1  3  2     0.0000000000e+00
 1  3  3     0.0000000000e+00
 2  1  1     4.2459295002e-02
 2  1  2     0.0000000000e+00
 2  1  3     0.0000000000e+00
 2  2  1     0.0000000000e+00
 2  2  2    -1.7997722832e-02
 2  2  3    -1.3783899777e-01
 2  3  1     0.0000000000e+00
 2  3  2    -1.0524786887e-01
 2  3  3    -1.0524786887e-01
 3  1  1     4.2459295002e-02
 3  1  2     0.0000000000e+00
 3  1  3     0.0000000000e+00
 3  2  1     0.0000000000e+00
 3  2  2    -1.0524786887e-01
 3  2  3    -1.0524786887e-01
 3  3  1     0.0000000000e+00
 3  3  2    -1.3783899777e-01
 3  3  3    -1.7997722832e-02

    8
0.0000000000e+00 0.0000000000e+00 0.0000000000e+00
5.4732754140e+00 2.7366377070e+00 -2.7366377070e+00
     1      1      2
 1  1  1    -1.7476432797e-02
 1  1  2    -3.4044777280e-03
 1  1  3     0.0000000000e+00
 1  2  1    -3.2325735687e-03
 1  2  2     1.6724142432e-03
 1  2  3     0.0000000000e+00
 1  3  1     0.0000000000e+00
 1  3  2     0.0000000000e+00
 1  3  3    -3.3624989163e-03
 2  1  1    -3.2325735687e-03
 2  1  2     1.6724142432e-03
 2  1  3     0.0000000000e+00
 2  2  1     9.2271841489e-03
 2  2  2     1.1015963933e-02
 2  2  3     0.0000000000e+00
 2  3  1     0.0000000000e+00
 2  3  2     0.0000000000e+00
 2  3  3    -4.5265416361e-03
 3  1  1     0.0000000000e+00
 3  1  2     0.0000000000e+00
 3  1  3    -3.3624989163e-03
 3  2  1     0.0000000000e+00
 3  2  2     0.0000000000e+00
 3  2  3    -4.5265416361e-03
 3  3  1    -1.1204637375e-02
 3  3  2    -1.1142255013e-02
 3  3  3     0.0000000000e+00

    9
0.0000000000e+00 0.0000000000e+00 0.0000000000e+00
2.7366377070e+00 2.7366377070e+00 0.0000000000e+00
     1      1      1
 1  1  1    -1.7997722832e-02
 1  1  2    -1.3783899777e-01
 1  1  3     0.0000000000e+00
 1  2  1    -1.0524786887e-01
 1  2  2    -1.0524786887e-01
 1  2  3     0.0000000000e+00
 1  3  1     0.0000000000e+00
 1  3  2     0.0000000000e+00
 1  3  3     4.2459295002e-02
 2  1  1    -1.0524786887e-01
 2  1  2    -1.0524786887e-01
 2  1  3     0.0000000000e+00
 2  2  1    -1.3783899777e-01
 2  2  2    -1.7997722832e-02
 2  2  3     0.0000000000e+00
 2  3  1     0.0000000000e+00
 2  3  2     0.0000000000e+00
 2  3  3     4.2459295002e-02
 3  1  1     0.0000000000e+00
 3  1  2     0.0000000000e+00
 3  1  3     4.2459295002e-02
 3  2  1     0.0000000000e+00
 3  2  2     0.0000000000e+00
 3  2  3     4.2459295002e-02
 3  3  1     4.9045091441e-02
 3  3  2     4.9045091441e-02
 3  3  3     0.0000000000e+00

   10
0.0000000000e+00 0.0000000000e+00 0.0000000000e+00
2.7366377070e+00 2.7366377070e+00 0.0000000000e+00
     1      1      2
 1  1  1     0.0000000000e+00
 1  1  2    -1.1142255013e-02
 1  1  3    -1.1204637375e-02
 1  2  1    -4.5265416361e-03
 1  2  2     0.0000000000e+00
 1  2  3     0.0000000000e+00
 1  3  1    -3.3624989163e-03
 1  3  2     0.0000000000e+00
 1  3  3     0.0000000000e+00
 2  1  1    -4.5265416361e-03
 2  1  2     0.0000000000e+00
 2  1  3     0.0000000000e+00
 2  2  1     0.0000000000e+00
 2  2  2     1.1015963933e-02
 2  2  3     9.2271841489e-03
 2  3  1     0.0000000000e+00
 2  3  2     1.6724142432e-03
 2  3  3    -3.2325735687e-03
 3  1  1    -3.3624989163e-03
 3  1  2     0.0000000000e+00
 3  1  3     0.0000000000e+00
 3  2  1     0.0000000000e+00
 3  2  2     1.6724142432e-03
 3  2  3    -3.2325735687e-03
 3  3  1     0.0000000000e+00
 3  3  2    -3.4044777280e-03
 3  3  3    -1.7476432797e-02

   11
0.0000000000e+00 0.0000000000e+00 0.0000000000e+00
0.0000000000e+00 -5.4732754140e+00 -5.4732754140e+00
     1      1      2
 1  1  1     1.5333050847e-02
 1  1  2    -2.0306450359e-02
 1  1  3    -2.0306450359e-02
 1  2  1    -1.3954042813e-02
 1  2  2    -1.3954042813e-02
 1  2  3    -1.6854886144e-02
 1  3  1    -1.3954042813e-02
 1  3  2    -1.6854886144e-02
 1  3  3    -1.3954042813e-02
 2  1  1    -1.3954042813e-02
 2  1  2    -1.3954042813e-02
 2  1  3    -1.6854886144e-02
 2  2  1    -2.0306450359e-02
 2  2  2     1.5333050847e-02
 2  2  3    -2.0306450359e-02
 2  3  1    -1.6854886144e-02
 2  3  2    -1.3954042813e-02
 2  3  3    -1.3954042813e-02
 3  1  1    -1.3954042813e-02
 3  1  2    -1.6854886144e-02
 3  1  3    -1.3954042813e-02
 3  2  1    -1.6854886144e-02
 3  2  2    -1.3954042813e-02
 3  2  3    -1.3954042813e-02
 3  3  1    -2.0306450359e-02
 3  3  2    -2.0306450359e-02
 3  3  3     1.5333050847e-02

   12
0.0000000000e+00 0.0000000000e+00 0.0000000000e+00
-2.7366377070e+00 -5.4732754140e+00 -2.7366377070e+00
     1      1      2
 1  1  1    -1.1015963933e-02
 1  1  2    -9.2271841489e-03
 1  1  3     0.0000000000e+00
 1  2  1    -1.6724142432e-03
 1  2  2     3.2325735687e-03
 1  2  3     0.0000000000e+00
 1  3  1     0.0000000000e+00
 1  3  2     0.0000000000e+00
 1  3  3     4.5265416361e-03
 2  1  1    -1.6724142432e-03
 2  1  2     3.2325735687e-03
 2  1  3     0.0000000000e+00
 2  2  1     3.4044777280e-03
 2  2  2     1.7476432797e-02
 2  2  3     0.0000000000e+00
 2  3  1     0.0000000000e+00
 2  3  2     0.0000000000e+00
 2  3  3     3.3624989163e-03
 3  1  1     0.0000000000e+00
 3  1  2     0.0000000000e+00
 3  1  3     4.5265416361e-03
 3  2  1     0.0000000000e+00
 3  2  2     0.0000000000e+00
 3  2  3     3.3624989163e-03
 3  3  1     1.1142255013e-02
 3  3  2     1.1204637375e-02
 3  3  3     0.0000000000e+00

   13
0.0000000000e+00 0.0000000000e+00 0.0000000000e+00
2.7366377070e+00 -5.4732754140e+00 -8.2099131209e+00
     1      1      2
 1  1  1     0.0000000000e+00
 1  1  2     1.1204637375e-02
 1  1  3     1.1142255013e-02
 1  2  1     3.3624989163e-03
 1  2  2     0.0000000000e+00
 1  2  3     0.0000000000e+00
 1  3  1     4.5265416361e-03
 1  3  2     0.0000000000e+00
 1  3  3     0.0000000000e+00
 2  1  1     3.3624989163e-03
 2  1  2     0.0000000000e+00
 2  1  3     0.0000000000e+00
 2  2  1     0.0000000000e+00
 2  2  2     1.7476432797e-02
 2  2  3     3.4044777280e-03
 2  3  1     0.0000000000e+00
 2  3  2     3.2325735687e-03
 2  3  3    -1.6724142432e-03
 3  1  1     4.5265416361e-03
 3  1  2     0.0000000000e+00
 3  1  3     0.0000000000e+00
 3  2  1     0.0000000000e+00
 3  2  2     3.2325735687e-03
 3  2  3    -1.6724142432e-03
 3  3  1     0.0000000000e+00
 3  3  2    -9.2271841489e-03
 3  3  3    -1.1015963933e-02

   14
0.0000000000e+00 0.0000000000e+00 0.0000000000e+00
0.0000000000e+00 -2.7366377070e+00 -2.7366377070e+00
     1      1      1
 1  1  1     0.0000000000e+00
 1  1  2    -4.9045091441e-02
 1  1  3    -4.9045091441e-02
 1  2  1    -4.2459295002e-02
 1  2  2     0.0000000000e+00
 1  2  3     0.0000000000e+00
 1  3  1    -4.2459295002e-02
 1  3  2     0.0000000000e+00
 1  3  3     0.0000000000e+00
 2  1  1    -4.2459295002e-02
 2  1  2     0.0000000000e+00
 2  1  3     0.0000000000e+00
 2  2  1     0.0000000000e+00
 2  2  2     1.7997722832e-02
 2  2  3     1.3783899777e-01
 2  3  1     0.0000000000e+00
 2  3  2     1.0524786887e-01
 2  3  3     1.0524786887e-01
 3  1  1    -4.2459295002e-02
 3  1  2     0.0000000000e+00
 3  1  3     0.0000000000e+00
 3  2  1     0.0000000000e+00
 3  2  2     1.0524786887e-01
 3  2  3     1.0524786887e-01
 3  3  1     0.0000000000e+00
 3  3  2     1.3783899777e-01
 3  3  3     1.7997722832e-02

   15
0.0000000000e+00 0.0000000000e+00 0.0000000000e+00
0.0000000000e+00 -2.7366377070e+00 -2.7366377070e+00
     1      1      2
 1  1  1     5.5862932262e+00
 1  1  2     0.0000000000e+00
 1  1  3     0.0000000000e+00
 1  2  1     0.0000000000e+00
 1  2  2    -2.2569039340e-01
 1  2  3     0.0000000000e+00
 1  3  1     0.0000000000e+00
 1  3  2     0.0000000000e+00
 1  3  3    -2.2569039340e-01
 2  1  1     0.0000000000e+00
 2  1  2    -2.2569039340e-01
 2  1  3     0.0000000000e+00
 2  2  1    -3.5829290036e-01
 2  2  2     0.0000000000e+00
 2  2  3     0.0000000000e+00
 2  3  1     0.0000000000e+00
 2  3  2     0.0000000000e+00
 2  3  3     0.0000000000e+00
 3  1  1     0.0000000000e+00
 3  1  2     0.0000000000e+00
 3  1  3    -2.2569039340e-01
 3  2  1     0.0000000000e+00
 3  2  2     0.0000000000e+00
 3  2  3     0.0000000000e+00
 3  3  1    -3.5829290036e-01
 3  3  2     0.0000000000e+00
 3  3  3     0.0000000000e+00

   16
0.0000000000e+00 0.0000000000e+00 0.0000000000e+00
-2.7366377070e+00 -2.7366377070e+00 0.0000000000e+00
     1      1      1
 1  1  1     1.7997722832e-02
 1  1  2     1.3783899777e-01
 1  1  3     0.0000000000e+00
 1  2  1     1.0524786887e-01
 1  2  2     1.0524786887e-01
 1  2  3     0.0000000000e+00
 1  3  1     0.0000000000e+00
 1  3  2     0.0000000000e+00
 1  3  3    -4.2459295002e-02
 2  1  1     1.0524786887e-01
 2  1  2     1.0524786887e-01
 2  1  3     0.0000000000e+00
 2  2  1     1.3783899777e-01
 2  2  2     1.7997722832e-02
 2  2  3     0.0000000000e+00
 2  3  1     0.0000000000e+00
 2  3  2     0.0000000000e+00
 2  3  3    -4.2459295002e-02
 3  1  1     0.0000000000e+00
 3  1  2     0.0000000000e+00
 3  1  3    -4.2459295002e-02
 3  2  1     0.0000000000e+00
 3  2  2     0.0000000000e+00
 3  2  3    -4.2459295002e-02
 3  3  1    -4.9045091441e-02
 3  3  2    -4.9045091441e-02
 3  3  3     0.0000000000e+00

   17
0.0000000000e+00 0.0000000000e+00 0.0000000000e+00
-2.7366377070e+00 -2.7366377070e+00 0.0000000000e+00
     1      1      2
 1  1  1    -1.1015963933e-02
 1  1  2     0.0000000000e+00
 1  1  3     9.2271841489e-03
 1  2  1     0.0000000000e+00
 1  2  2     4.5265416361e-03
 1  2  3     0.0000000000e+00
 1  3  1     1.6724142432e-03
 1  3  2     0.0000000000e+00
 1  3  3     3.2325735687e-03
 2  1  1     0.0000000000e+00
 2  1  2     4.5265416361e-03
 2  1  3     0.0000000000e+00
 2  2  1     1.1142255013e-02
 2  2  2     0.0000000000e+00
 2  2  3    -1.1204637375e-02
 2  3  1     0.0000000000e+00
 2  3  2    -3.3624989163e-03
 2  3  3     0.0000000000e+00
 3  1  1     1.6724142432e-03
 3  1  2     0.0000000000e+00
 3  1  3     3.2325735687e-03
 3  2  1     0.0000000000e+00
 3  2  2    -3.3624989163e-03
 3  2  3     0.0000000000e+00
 3  3  1     3.4044777280e-03
 3  3  2     0.0000000000e+00
 3  3  3    -1.7476432797e-02

   18
0.0000000000e+00 0.0000000000e+00 0.0000000000e+00
5.4732754140e+00 -2.7366377070e+00 -8.2099131209e+00
     1      1      2
 1  1  1    -1.7476432797e-02
 1  1  2     0.0000000000e+00
 1  1  3     3.4044777280e-03
 1  2  1     0.0000000000e+00
 1  2  2    -3.3624989163e-03
 1  2  3     0.0000000000e+00
 1  3  1     3.2325735687e-03
 1  3  2     0.0000000000e+00
 1  3  3     1.6724142432e-03
 2  1  1     0.0000000000e+00
 2  1  2    -3.3624989163e-03
 2  1  3     0.0000000000e+00
 2  2  1    -1.1204637375e-02
 2  2  2     0.0000000000e+00
 2  2  3     1.1142255013e-02
 2  3  1     0.0000000000e+00
 2  3  2     4.5265416361e-03
 2  3  3     0.0000000000e+00
 3  1  1     3.2325735687e-03
 3  1  2     0.0000000000e+00
 3  1  3     1.6724142432e-03
 3  2  1     0.0000000000e+00
 3  2  2     4.5265416361e-03
 3  2  3     0.0000000000e+00
 3  3  1     9.2271841489e-03
 3  3  2     0.0000000000e+00
 3  3  3    -1.1015963933e-02

   19
0.0000000000e+00 0.0000000000e+00 0.0000000000e+00
2.7366377070e+00 -2.7366377070e+00 -5.4732754140e+00
     1      1      2
 1  1  1     0.0000000000e+00
 1  1  2     0.0000000000e+00
 1  1  3    -3.5829290036e-01
 1  2  1     0.0000000000e+00
 1  2  2     0.0000000000e+00
 1  2  3     0.0000000000e+00
 1  3  1    -2.2569039340e-01
 1  3  2     0.0000000000e+00
 1  3  3     0.0000000000e+00
 2  1  1     0.0000000000e+00
 2  1  2     0.0000000000e+00
 2  1  3     0.0000000000e+00
 2  2  1     0.0000000000e+00
 2  2  2     0.0000000000e+00
 2  2  3    -3.5829290036e-01
 2  3  1     0.0000000000e+00
 2  3  2    -2.2569039340e-01
 2  3  3     0.0000000000e+00
 3  1  1    -2.2569039340e-01
 3  1  2     0.0000000000e+00
 3  1  3     0.0000000000e+00
 3  2  1     0.0000000000e+00
 3  2  2    -2.2569039340e-01
 3  2  3     0.0000000000e+00
 3  3  1     0.0000000000e+00
 3  3  2     0.0000000000e+00
 3  3  3     5.5862932262e+00

   20
0.0000000000e+00 0.0000000000e+00 0.0000000000e+00
-2.7366377070e+00 2.7366377070e+00 0.0000000000e+00
     1      1      1
 1  1  1     1.7997722832e-02
 1  1  2    -1.3783899777e-01
 1  1  3     0.0000000000e+00
 1  2  1    -1.0524786887e-01
 1  2  2     1.0524786887e-01
 1  2  3     0.0000000000e+00
 1  3  1     0.0000000000e+00
 1  3  2     0.0000000000e+00
 1  3  3    -4.2459295002e-02
 2  1  1    -1.0524786887e-01
 2  1  2     1.0524786887e-01
 2  1  3     0.0000000000e+00
 2  2  1     1.3783899777e-01
 2  2  2    -1.7997722832e-02
 2  2  3     0.0000000000e+00
 2  3  1     0.0000000000e+00
 2  3  2     0.0000000000e+00
 2  3  3     4.2459295002e-02
 3  1  1     0.0000000000e+00
 3  1  2     0.0000000000e+00
 3  1  3    -4.2459295002e-02
 3  2  1     0.0000000000e+00
 3  2  2     0.0000000000e+00
 3  2  3     4.2459295002e-02
 3  3  1    -4.9045091441e-02
 3  3  2     4.9045091441e-02
 3  3  3     0.0000000000e+00

   21
0.0000000000e+00 0.0000000000e+00 0.0000000000e+00
2.7366377070e+00 2.7366377070e+00 -5.4732754140e+00
     1      1      2
 1  1  1     0.0000000000e+00
 1  1  2    -1.1142255013e-02
 1  1  3     1.1204637375e-02
 1  2  1    -4.5265416361e-03
 1  2  2     0.0000000000e+00
 1  2  3     0.0000000000e+00
 1  3  1     3.3624989163e-03
 1  3  2     0.0000000000e+00
 1  3  3     0.0000000000e+00
 2  1  1    -4.5265416361e-03
 2  1  2     0.0000000000e+00
 2  1  3     0.0000000000e+00
 2  2  1     0.0000000000e+00
 2  2  2     1.1015963933e-02
 2  2  3    -9.2271841489e-03
 2  3  1     0.0000000000e+00
 2  3  2    -1.6724142432e-03
 2  3  3    -3.2325735687e-03
 3  1  1     3.3624989163e-03
 3  1  2     0.0000000000e+00
 3  1  3     0.0000000000e+00
 3  2  1     0.0000000000e+00
 3  2  2    -1.6724142432e-03
 3  2  3    -3.2325735687e-03
 3  3  1     0.0000000000e+00
 3  3  2    -3.4044777280e-03
 3  3  3     1.7476432797e-02

   22
0.0000000000e+00 0.0000000000e+00 0.0000000000e+00
0.0000000000e+00 2.7366377070e+00 -2.7366377070e+00
     1      1      1
 1  1  1     0.0000000000e+00
 1  1  2     4.9045091441e-02
 1  1  3    -4.9045091441e-02
 1  2  1     4.2459295002e-02
 1  2  2     0.0000000000e+00
 1  2  3     0.0000000000e+00
 1  3  1    -4.2459295002e-02
 1  3  2     0.0000000000e+00
 1  3  3     0.0000000000e+00
 2  1  1     4.2459295002e-02
 2  1  2     0.0000000000e+00
 2  1  3     0.0000000000e+00
 2  2  1     0.0000000000e+00
 2  2  2    -1.7997722832e-02
 2  2  3     1.3783899777e-01
 2  3  1     0.0000000000e+00
 2  3  2     1.0524786887e-01
 2  3  3    -1.0524786887e-01
 3  1  1    -4.2459295002e-02
 3  1  2     0.0000000000e+00
 3  1  3     0.0000000000e+00
 3  2  1     0.0000000000e+00
 3  2  2     1.0524786887e-01
 3  2  3    -1.0524786887e-01
 3  3  1     0.0000000000e+00
 3  3  2    -1.3783899777e-01
 3  3  3     1.7997722832e-02

   23
0.0000000000e+00 0.0000000000e+00 0.0000000000e+00
0.0000000000e+00 2.7366377070e+00 -2.7366377070e+00
     1      1      2
 1  1  1     1.7476432797e-02
 1  1  2    -3.4044777280e-03
 1  1  3     0.0000000000e+00
 1  2  1    -3.2325735687e-03
 1  2  2    -1.6724142432e-03
 1  2  3     0.0000000000e+00
 1  3  1     0.0000000000e+00
 1  3  2     0.0000000000e+00
 1  3  3     3.3624989163e-03
 2  1  1    -3.2325735687e-03
 2  1  2    -1.6724142432e-03
 2  1  3     0.0000000000e+00
 2  2  1    -9.2271841489e-03
 2  2  2     1.1015963933e-02
 2  2  3     0.0000000000e+00
 2  3  1     0.0000000000e+00
 2  3  2     0.0000000000e+00
 2  3  3    -4.5265416361e-03
 3  1  1     0.0000000000e+00
 3  1  2     0.0000000000e+00
 3  1  3     3.3624989163e-03
 3  2  1     0.0000000000e+00
 3  2  2     0.0000000000e+00
 3  2  3    -4.5265416361e-03
 3  3  1     1.1204637375e-02
 3  3  2    -1.1142255013e-02
 3  3  3     0.0000000000e+00

   24
0.0000000000e+00 0.0000000000e+00 0.0000000000e+00
0.0000000000e+00 5.4732754140e+00 0.0000000000e+00
     1      1      1
 1  1  1     0.0000000000e+00
 1  1  2     3.9376909375e-02
 1  1  3     0.0000000000e+00
 1  2  1    -1.2864520313e-03
 1  2  2     0.0000000000e+00
 1  2  3     0.0000000000e+00
 1  3  1     0.0000000000e+00
 1  3  2     0.0000000000e+00
 1  3  3     0.0000000000e+00
 2  1  1    -1.2864520313e-03
 2  1  2     0.0000000000e+00
 2  1  3     0.0000000000e+00
 2  2  1     0.0000000000e+00
 2  2  2    -3.0853239140e-02
 2  2  3     0.0000000000e+00
 2  3  1     0.0000000000e+00
 2  3  2     0.0000000000e+00
 2  3  3    -1.2864520313e-03
 3  1  1     0.0000000000e+00
 3  1  2     0.0000000000e+00
 3  1  3     0.0000000000e+00
 3  2  1     0.0000000000e+00
 3  2  2     0.0000000000e+00
 3  2  3    -1.2864520313e-03
 3  3  1     0.0000000000e+00
 3  3  2     3.9376909375e-02
 3  3  3     0.0000000000e+00

   25
0.0000000000e+00 0.0000000000e+00 0.0000000000e+00
-2.7366377070e+00 -2.7366377070e+00 -5.4732754140e+00
     1      1      2
 1  1  1    -1.1015963933e-02
 1  1  2     0.0000000000e+00
 1  1  3    -9.2271841489e-03
 1  2  1     0.0000000000e+00
 1  2  2     4.5265416361e-03
 1  2  3     0.0000000000e+00
 1  3  1    -1.6724142432e-03
 1  3  2     0.0000000000e+00
 1  3  3     3.2325735687e-03
 2  1  1     0.0000000000e+00
 2  1  2     4.5265416361e-03
 2  1  3     0.0000000000e+00
 2  2  1     1.1142255013e-02
 2  2  2     0.0000000000e+00
 2  2  3     1.1204637375e-02
 2  3  1     0.0000000000e+00
 2  3  2     3.3624989163e-03
 2  3  3     0.0000000000e+00
 3  1  1    -1.6724142432e-03
 3  1  2     0.0000000000e+00
 3  1  3     3.2325735687e-03
 3  2  1     0.0000000000e+00
 3  2  2     3.3624989163e-03
 3  2  3     0.0000000000e+00
 3  3  1     3.4044777280e-03
 3  3  2     0.0000000000e+00
 3  3  3     1.7476432797e-02

   26
0.0000000000e+00 0.0000000000e+00 0.0000000000e+00
0.0000000000e+00 -2.7366377070e+00 -8.2099131209e+00
     1      1      2
 1  1  1     1.7476432797e-02
 1  1  2     0.0000000000e+00
 1  1  3     3.4044777280e-03
 1  2  1     0.0000000000e+00
 1  2  2     3.3624989163e-03
 1  2  3     0.0000000000e+00
 1  3  1     3.2325735687e-03
 1  3  2     0.0000000000e+00
 1  3  3    -1.6724142432e-03
 2  1  1     0.0000000000e+00
 2  1  2     3.3624989163e-03
 2  1  3     0.0000000000e+00
 2  2  1     1.1204637375e-02
 2  2  2     0.0000000000e+00
 2  2  3     1.1142255013e-02
 2  3  1     0.0000000000e+00
 2  3  2     4.5265416361e-03
 2  3  3     0.0000000000e+00
 3  1  1     3.2325735687e-03
 3  1  2     0.0000000000e+00
 3  1  3    -1.6724142432e-03
 3  2  1     0.0000000000e+00
 3  2  2     4.5265416361e-03
 3  2  3     0.0000000000e+00
 3  3  1    -9.2271841489e-03
 3  3  2     0.0000000000e+00
 3  3  3    -1.1015963933e-02

   27
0.0000000000e+00 0.0000000000e+00 0.0000000000e+00
-2.7366377070e+00 0.0000000000e+00 -2.7366377070e+00
     1      1      1
 1  1  1     1.7997722832e-02
 1  1  2     0.0000000000e+00
 1  1  3     1.3783899777e-01
 1  2  1     0.0000000000e+00
 1  2  2    -4.2459295002e-02
 1  2  3     0.0000000000e+00
 1  3  1     1.0524786887e-01
 1  3  2     0.0000000000e+00
 1  3  3     1.0524786887e-01
 2  1  1     0.0000000000e+00
 2  1  2    -4.2459295002e-02
 2  1  3     0.0000000000e+00
 2  2  1    -4.9045091441e-02
 2  2  2     0.0000000000e+00
 2  2  3    -4.9045091441e-02
 2  3  1     0.0000000000e+00
 2  3  2    -4.2459295002e-02
 2  3  3     0.0000000000e+00
 3  1  1     1.0524786887e-01
 3  1  2     0.0000000000e+00
 3  1  3     1.0524786887e-01
 3  2  1     0.0000000000e+00
 3  2  2    -4.2459295002e-02
 3  2  3     0.0000000000e+00
 3  3  1     1.3783899777e-01
 3  3  2     0.0000000000e+00
 3  3  3     1.7997722832e-02

   28
0.0000000000e+00 0.0000000000e+00 0.0000000000e+00
-2.7366377070e+00 0.0000000000e+00 -2.7366377070e+00
     1      1      2
 1  1  1    -1.1015963933e-02
 1  1  2     9.2271841489e-03
 1  1  3     0.0000000000e+00
 1  2  1     1.6724142432e-03
 1  2  2     3.2325735687e-03
 1  2  3     0.0000000000e+00
 1  3  1     0.0000000000e+00
 1  3  2     0.0000000000e+00
 1  3  3     4.5265416361e-03
 2  1  1     1.6724142432e-03
 2  1  2     3.2325735687e-03
 2  1  3     0.0000000000e+00
 2  2  1     3.4044777280e-03
 2  2  2    -1.7476432797e-02
 2  2  3     0.0000000000e+00
 2  3  1     0.0000000000e+00
 2  3  2     0.0000000000e+00
 2  3  3    -3.3624989163e-03
 3  1  1     0.0000000000e+00
 3  1  2     0.0000000000e+00
 3  1  3     4.5265416361e-03
 3  2  1     0.0000000000e+00
 3  2  2     0.0000000000e+00
 3  2  3    -3.3624989163e-03
 3  3  1     1.1142255013e-02
 3  3  2    -1.1204637375e-02
 3  3  3     0.0000000000e+00

   29
0.0000000000e+00 0.0000000000e+00 0.0000000000e+00
-5.4732754140e+00 0.0000000000e+00 0.0000000000e+00
     1      1      1
 1  1  1     3.0853239140e-02
 1  1  2     0.0000000000e+00
 1  1  3     0.0000000000e+00
 1  2  1     0.0000000000e+00
 1  2  2     1.2864520313e-03
 1  2  3     0.0000000000e+00
 1  3  1     0.0000000000e+00
 1  3  2     0.0000000000e+00
 1  3  3     1.2864520313e-03
 2  1  1     0.0000000000e+00
 2  1  2     1.2864520313e-03
 2  1  3     0.0000000000e+00
 2  2  1    -3.9376909375e-02
 2  2  2     0.0000000000e+00
 2  2  3     0.0000000000e+00
 2  3  1     0.0000000000e+00
 2  3  2     0.0000000000e+00
 2  3  3     0.0000000000e+00
 3  1  1     0.0000000000e+00
 3  1  2     0.0000000000e+00
 3  1  3     1.2864520313e-03
 3  2  1     0.0000000000e+00
 3  2  2     0.0000000000e+00
 3  2  3     0.0000000000e+00
 3  3  1    -3.9376909375e-02
 3  3  2     0.0000000000e+00
 3  3  3     0.0000000000e+00

   30
0.0000000000e+00 0.0000000000e+00 0.0000000000e+00
2.7366377070e+00 0.0000000000e+00 -8.2099131209e+00
     1      1      2
 1  1  1     0.0000000000e+00
 1  1  2    -1.1204637375e-02
 1  1  3     1.1142255013e-02
 1  2  1    -3.3624989163e-03
 1  2  2     0.0000000000e+00
 1  2  3     0.0000000000e+00
 1  3  1     4.5265416361e-03
 1  3  2     0.0000000000e+00
 1  3  3     0.0000000000e+00
 2  1  1    -3.3624989163e-03
 2  1  2     0.0000000000e+00
 2  1  3     0.0000000000e+00
 2  2  1     0.0000000000e+00
 2  2  2    -1.7476432797e-02
 2  2  3     3.4044777280e-03
 2  3  1     0.0000000000e+00
 2  3  2     3.2325735687e-03
 2  3  3     1.6724142432e-03
 3  1  1     4.5265416361e-03
 3  1  2     0.0000000000e+00
 3  1  3     0.0000000000e+00
 3  2  1     0.0000000000e+00
 3  2  2     3.2325735687e-03
 3  2  3     1.6724142432e-03
 3  3  1     0.0000000000e+00
 3  3  2     9.2271841489e-03
 3  3  3    -1.1015963933e-02

   31
0.0000000000e+00 0.0000000000e+00 0.0000000000e+00
0.0000000000e+00 0.0000000000e+00 -5.4732754140e+00
     1      1      1
 1  1  1     0.0000000000e+00
 1  1  2     0.0000000000e+00
 1  1  3    -3.9376909375e-02
 1  2  1     0.0000000000e+00
 1  2  2     0.0000000000e+00
 1  2  3     0.0000000000e+00
 1  3  1     1.2864520313e-03
 1  3  2     0.0000000000e+00
 1  3  3     0.0000000000e+00
 2  1  1     0.0000000000e+00
 2  1  2     0.0000000000e+00
 2  1  3     0.0000000000e+00
 2  2  1     0.0000000000e+00
 2  2  2     0.0000000000e+00
 2  2  3    -3.9376909375e-02
 2  3  1     0.0000000000e+00
 2  3  2     1.2864520313e-03
 2  3  3     0.0000000000e+00
 3  1  1     1.2864520313e-03
 3  1  2     0.0000000000e+00
 3  1  3     0.0000000000e+00
 3  2  1     0.0000000000e+00
 3  2  2     1.2864520313e-03
 3  2  3     0.0000000000e+00
 3  3  1     0.0000000000e+00
 3  3  2     0.0000000000e+00
 3  3  3     3.0853239140e-02

   32
0.0000000000e+00 0.0000000000e+00 0.0000000000e+00
0.0000000000e+00 0.0000000000e+00 -5.4732754140e+00
     1      1      2
 1  1  1     1.5333050847e-02
 1  1  2     2.0306450359e-02
 1  1  3    -2.0306450359e-02
 1  2  1     1.3954042813e-02
 1  2  2    -1.3954042813e-02
 1  2  3     1.6854886144e-02
 1  3  1    -1.3954042813e-02
 1  3  2     1.6854886144e-02
 1  3  3    -1.3954042813e-02
 2  1  1     1.3954042813e-02
 2  1  2    -1.3954042813e-02
 2  1  3     1.6854886144e-02
 2  2  1    -2.0306450359e-02
 2  2  2    -1.5333050847e-02
 2  2  3    -2.0306450359e-02
 2  3  1     1.6854886144e-02
 2  3  2    -1.3954042813e-02
 2  3  3     1.3954042813e-02
 3  1  1    -1.3954042813e-02
 3  1  2     1.6854886144e-02
 3  1  3    -1.3954042813e-02
 3  2  1     1.6854886144e-02