 1989

    1
0.0000000000e+00 0.0000000000e+00 0.0000000000e+00
0.0000000000e+00 0.0000000000e+00 0.0000000000e+00
     1      1      1
 1  1  1     0.0000000000e+00
 1  1  2    -1.8421675074e+01
 1  1  3     0.0000000000e+00
 1  2  1    -1.8421675074e+01
 1  2  2     0.0000000000e+00
 1  2  3     0.0000000000e+00
 1  3  1     0.0000000000e+00
 1  3  2     0.0000000000e+00
 1  3  3     0.0000000000e+00
 2  1  1    -1.8421675074e+01
 2  1  2     0.0000000000e+00
 2  1  3     0.0000000000e+00
 2  2  1     0.0000000000e+00
 2  2  2     1.8421675071e+01
 2  2  3     0.0000000000e+00
 2  3  1     0.0000000000e+00
 2  3  2     0.0000000000e+00
 2  3  3     0.0000000000e+00
 3  1  1     0.0000000000e+00
 3  1  2     0.0000000000e+00
 3  1  3     0.0000000000e+00
 3  2  1     0.0000000000e+00
 3  2  2     0.0000000000e+00
 3  2  3     0.0000000000e+00
 3  3  1     0.0000000000e+00
 3  3  2     0.0000000000e+00
 3  3  3     0.0000000000e+00

    2
0.0000000000e+00 0.0000000000e+00 0.0000000000e+00
0.0000000000e+00 0.0000000000e+00 0.0000000000e+00
     1      1      2
 1  1  1    -7.9455623772e+00
 1  1  2     4.9284759957e+00
 1  1  3    -1.0406497669e+01
 1  2  1     3.8209465383e+00
 1  2  2    -2.0090883617e+00
 1  2  3     4.9348514876e+00
 1  3  1    -1.0209733453e+01
 1  3  2     6.2095832217e+00
 1  3  3    -1.0030766138e+01
 2  1  1     3.8209465383e+00
 2  1  2    -2.0090883617e+00
 2  1  3     4.9348514876e+00
 2  2  1    -3.9273856527e+00
 2  2  2     1.9263737451e+00
 2  2  3    -4.7082219988e+00
 2  3  1     6.2095832217e+00
 2  3  2    -3.0395243625e+00
 2  3  3     5.7912655297e+00
 3  1  1    -1.0209733453e+01
 3  1  2     6.2095832217e+00
 3  1  3    -1.0030766138e+01
 3  2  1     6.2095832217e+00
 3  2  2    -3.0395243625e+00
 3  2  3     5.7912655297e+00
 3  3  1    -1.0391907906e+01
 3  3  2     5.9997708265e+00
 3  3  3    -1.0204313734e+01

    3
0.0000000000e+00 0.0000000000e+00 0.0000000000e+00
0.0000000000e+00 0.0000000000e+00 0.0000000000e+00
     1      1      3
 1  1  1    -7.9455623772e+00
 1  1  2     4.9284759957e+00
 1  1  3     1.0406497669e+01
 1  2  1     3.8209465383e+00
 1  2  2    -2.0090883617e+00
 1  2  3    -4.9348514876e+00
 1  3  1     1.0209733453e+01
 1  3  2    -6.2095832217e+00
 1  3  3    -1.0030766138e+01
 2  1  1     3.8209465383e+00
 2  1  2    -2.0090883617e+00
 2  1  3    -4.9348514876e+00
 2  2  1    -3.9273856527e+00
 2  2  2     1.9263737451e+00
 2  2  3     4.7082219988e+00
 2  3  1    -6.2095832217e+00
 2  3  2     3.0395243625e+00
 2  3  3     5.7912655297e+00
 3  1  1     1.0209733453e+01
 3  1  2    -6.2095832217e+00
 3  1  3    -1.0030766138e+01
 3  2  1    -6.2095832217e+00
 3  2  2     3.0395243625e+00
 3  2  3     5.7912655297e+00
 3  3  1    -1.0391907906e+01
 3  3  2     5.9997708265e+00
 3  3  3     1.0204313734e+01

    4
0.0000000000e+00 0.0000000000e+00 0.0000000000e+00
3.2565409200e+00 0.0000000000e+00 0.0000000000e+00
     1      1      1
 1  1  1    -5.8511882478e+00
 1  1  2     2.4894587114e+00
 1  1  3     0.0000000000e+00
 1  2  1     3.2042663622e-01
 1  2  2    -1.9533955758e-01
 1  2  3     0.0000000000e+00
 1  3  1     0.0000000000e+00
 1  3  2     0.0000000000e+00
 1  3  3    -6.5551264350e-01
 2  1  1     3.2042663622e-01
 2  1  2    -1.9533955758e-01
 2  1  3     0.0000000000e+00
 2  2  1     5.2233510340e-01
 2  2  2    -6.8631634206e-02
 2  2  3     0.0000000000e+00
 2  3  1     0.0000000000e+00
 2  3  2     0.0000000000e+00
 2  3  3    -1.1481205640e+00
 3  1  1     0.0000000000e+00
 3  1  2     0.0000000000e+00
 3  1  3    -6.5551264350e-01
 3  2  1     0.0000000000e+00
 3  2  2     0.0000000000e+00
 3  2  3    -1.1481205640e+00
 3  3  1    -1.4135241296e+00
 3  3  2    -7.8786644717e-01
 3  3  3     0.0000000000e+00

    5
0.0000000000e+00 0.0000000000e+00 0.0000000000e+00
3.2565409200e+00 0.0000000000e+00 0.0000000000e+00
     1      1      2
 1  1  1     5.5837081552e-02
 1  1  2    -1.2066596087e-01
 1  1  3     6.8900452480e-02
 1  2  1     3.0634877830e-02
 1  2  2     2.2500326287e-02
 1  2  3     5.2953749013e-02
 1  3  1    -8.3666400414e-02
 1  3  2     8.0154950940e-02
 1  3  3    -4.6725255897e-02
 2  1  1     3.0634877830e-02
 2  1  2     2.2500326287e-02
 2  1  3     5.2953749013e-02
 2  2  1     9.1659140547e-02
 2  2  2     8.1405207513e-02
 2  2  3     4.6767449383e-02
 2  3  1    -9.6999457964e-02
 2  3  2    -5.7153424895e-02
 2  3  3     1.5472855884e-01
 3  1  1    -8.3666400414e-02
 3  1  2     8.0154950940e-02
 3  1  3    -4.6725255897e-02
 3  2  1    -9.6999457964e-02
 3  2  2    -5.7153424895e-02
 3  2  3     1.5472855884e-01
 3  3  1     2.0905021353e-01
 3  3  2     5.6192469337e-02
 3  3  3    -1.6197215076e-01

    6
0.0000000000e+00 0.0000000000e+00 0.0000000000e+00
3.2565409200e+00 0.0000000000e+00 0.0000000000e+00
     1      1      3
 1  1  1     5.5837081552e-02
 1  1  2    -1.2066596087e-01
 1  1  3    -6.8900452480e-02
 1  2  1     3.0634877830e-02
 1  2  2     2.2500326287e-02
 1  2  3    -5.2953749013e-02
 1  3  1     8.3666400414e-02
 1  3  2    -8.0154950940e-02
 1  3  3    -4.6725255897e-02
 2  1  1     3.0634877830e-02
 2  1  2     2.2500326287e-02
 2  1  3    -5.2953749013e-02
 2  2  1     9.1659140547e-02
 2  2  2     8.1405207513e-02
 2  2  3    -4.6767449383e-02
 2  3  1     9.6999457964e-02
 2  3  2     5.7153424895e-02
 2  3  3     1.5472855884e-01
 3  1  1     8.3666400414e-02
 3  1  2    -8.0154950940e-02
 3  1  3    -4.6725255897e-02
 3  2  1     9.6999457964e-02
 3  2  2     5.7153424895e-02
 3  2  3     1.5472855884e-01
 3  3  1     2.0905021353e-01
 3  3  2     5.6192469337e-02
 3  3  3     1.6197215076e-01

    7
0.0000000000e+00 0.0000000000e+00 0.0000000000e+00
-6.5130818400e+00 0.0000000000e+00 0.0000000000e+00
     1      1      2
 1  1  1    -5.5837081552e-02
 1  1  2    -1.2066596087e-01
 1  1  3     6.8900452480e-02
 1  2  1     3.0634877830e-02
 1  2  2    -2.2500326287e-02
 1  2  3    -5.2953749013e-02
 1  3  1    -8.3666400414e-02
 1  3  2    -8.0154950940e-02
 1  3  3     4.6725255897e-02
 2  1  1     3.0634877830e-02
 2  1  2    -2.2500326287e-02
 2  1  3    -5.2953749013e-02
 2  2  1    -9.1659140547e-02
 2  2  2     8.1405207513e-02
 2  2  3     4.6767449383e-02
 2  3  1     9.6999457964e-02
 2  3  2    -5.7153424895e-02
 2  3  3     1.5472855884e-01
 3  1  1    -8.3666400414e-02
 3  1  2    -8.0154950940e-02
 3  1  3     4.6725255897e-02
 3  2  1     9.6999457964e-02
 3  2  2    -5.7153424895e-02
 3  2  3     1.5472855884e-01
 3  3  1    -2.0905021353e-01
 3  3  2     5.6192469337e-02
 3  3  3    -1.6197215076e-01

    8
0.0000000000e+00 0.0000000000e+00 0.0000000000e+00
-6.5130818400e+00 0.0000000000e+00 0.0000000000e+00
     1      1      3
 1  1  1    -5.5837081552e-02
 1  1  2    -1.2066596087e-01
 1  1  3    -6.8900452480e-02
 1  2  1     3.0634877830e-02
 1  2  2    -2.2500326287e-02
 1  2  3     5.2953749013e-02
 1  3  1     8.3666400414e-02
 1  3  2     8.0154950940e-02
 1  3  3     4.6725255897e-02
 2  1  1     3.0634877830e-02
 2  1  2    -2.2500326287e-02
 2  1  3     5.2953749013e-02
 2  2  1    -9.1659140547e-02
 2  2  2     8.1405207513e-02
 2  2  3    -4.6767449383e-02
 2  3  1    -9.6999457964e-02
 2  3  2     5.7153424895e-02
 2  3  3     1.5472855884e-01
 3  1  1     8.3666400414e-02
 3  1  2     8.0154950940e-02
 3  1  3     4.6725255897e-02
 3  2  1    -9.6999457964e-02
 3  2  2     5.7153424895e-02
 3  2  3     1.5472855884e-01
 3  3  1    -2.0905021353e-01
 3  3  2     5.6192469337e-02
 3  3  3     1.6197215076e-01

    9
0.0000000000e+00 0.0000000000e+00 0.0000000000e+00
-3.2565409200e+00 0.0000000000e+00 0.0000000000e+00
     1      1      1
 1  1  1     5.8511882478e+00
 1  1  2     2.4894587114e+00
 1  1  3     0.0000000000e+00
 1  2  1     3.2042663622e-01
 1  2  2     1.9533955758e-01
 1  2  3     0.0000000000e+00
 1  3  1     0.0000000000e+00
 1  3  2     0.0000000000e+00
 1  3  3     6.5551264350e-01
 2  1  1     3.2042663622e-01
 2  1  2     1.9533955758e-01
 2  1  3     0.0000000000e+00
 2  2  1    -5.2233510340e-01
 2  2  2    -6.8631634206e-02
 2  2  3     0.0000000000e+00
 2  3  1     0.0000000000e+00
 2  3  2     0.0000000000e+00
 2  3  3    -1.1481205640e+00
 3  1  1     0.0000000000e+00
 3  1  2     0.0000000000e+00
 3  1  3     6.5551264350e-01
 3  2  1     0.0000000000e+00
 3  2  2     0.0000000000e+00
 3  2  3    -1.1481205640e+00
 3  3  1     1.4135241296e+00
 3  3  2    -7.8786644717e-01
 3  3  3     0.0000000000e+00

   10
0.0000000000e+00 0.0000000000e+00 0.0000000000e+00
-3.2565409200e+00 0.0000000000e+00 0.0000000000e+00
     1      1      2
 1  1  1     7.9455623772e+00
 1  1  2     4.9284759957e+00
 1  1  3    -1.0406497669e+01
 1  2  1     3.8209465383e+00
 1  2  2     2.0090883617e+00
 1  2  3    -4.9348514876e+00
 1  3  1    -1.0209733453e+01
 1  3  2    -6.2095832217e+00
 1  3  3     1.0030766138e+01
 2  1  1     3.8209465383e+00
 2  1  2     2.0090883617e+00
 2  1  3    -4.9348514876e+00
 2  2  1     3.9273856527e+00
 2  2  2     1.9263737451e+00
 2  2  3    -4.7082219988e+00
 2  3  1    -6.2095832217e+00
 2  3  2    -3.0395243625e+00
 2  3  3     5.7912655297e+00
 3  1  1    -1.0209733453e+01
 3  1  2    -6.2095832217e+00
 3  1  3     1.0030766138e+01
 3  2  1    -6.2095832217e+00
 3  2  2    -3.0395243625e+00
 3  2  3     5.7912655297e+00
 3  3  1     1.0391907906e+01
 3  3  2     5.9997708265e+00
 3  3  3    -1.0204313734e+01

   11
0.0000000000e+00 0.0000000000e+00 0.0000000000e+00
-3.2565409200e+00 0.0000000000e+00 0.0000000000e+00
     1      1      3
 1  1  1     7.9455623772e+00
 1  1  2     4.9284759957e+00
 1  1  3     1.0406497669e+01
 1  2  1     3.8209465383e+00
 1  2  2     2.0090883617e+00
 1  2  3     4.9348514876e+00
 1  3  1     1.0209733453e+01
 1  3  2     6.2095832217e+00
 1  3  3     1.0030766138e+01
 2  1  1     3.8209465383e+00
 2  1  2     2.0090883617e+00
 2  1  3     4.9348514876e+00
 2  2  1     3.9273856527e+00
 2  2  2     1.9263737451e+00
 2  2  3     4.7082219988e+00
 2  3  1     6.2095832217e+00
 2  3  2     3.0395243625e+00
 2  3  3     5.7912655297e+00
 3  1  1     1.0209733453e+01
 3  1  2     6.2095832217e+00
 3  1  3     1.0030766138e+01
 3  2  1     6.2095832217e+00
 3  2  2     3.0395243625e+00
 3  2  3     5.7912655297e+00
 3  3  1     1.0391907906e+01
 3  3  2     5.9997708265e+00
 3  3  3     1.0204313734e+01

   12
0.0000000000e+00 0.0000000000e+00 0.0000000000e+00
-1.6282704600e+00 2.8202471650e+00 0.0000000000e+00
     1      1      1
 1  1  1     4.8872664433e-02
 1  1  2    -8.8809380381e-01
 1  1  3     0.0000000000e+00
 1  2  1    -4.2510225430e-01
 1  2  2     2.7563303696e+00
 1  2  3     0.0000000000e+00
 1  3  1     0.0000000000e+00
 1  3  2     0.0000000000e+00
 1  3  3     1.3220578969e+00
 2  1  1    -4.2510225430e-01
 2  1  2     2.7563303696e+00
 2  1  3     0.0000000000e+00
 2  2  1     5.1905616047e-01
 2  2  2    -4.9372419298e+00
 2  2  3     0.0000000000e+00
 2  3  1     0.0000000000e+00
 2  3  2     0.0000000000e+00
 2  3  3     6.3696802751e-03
 3  1  1     0.0000000000e+00
 3  1  2     0.0000000000e+00
 3  1  3     1.3220578969e+00
 3  2  1     0.0000000000e+00
 3  2  2     0.0000000000e+00
 3  2  3     6.3696802751e-03
 3  3  1     1.3890744229e+00
 3  3  2    -8.3021458140e-01
 3  3  3     0.0000000000e+00

   13
0.0000000000e+00 0.0000000000e+00 0.0000000000e+00
-1.6282704600e+00 2.8202471650e+00 0.0000000000e+00
     1      1      2
 1  1  1     0.0000000000e+00
 1  1  2    -1.8739554962e+00
 1  1  3    -1.8590841645e+00
 1  2  1     3.4110341862e-01
 1  2  2     0.0000000000e+00
 1  2  3     0.0000000000e+00
 1  3  1     5.4558018197e-01
 1  3  2     0.0000000000e+00
 1  3  3     0.0000000000e+00
 2  1  1     3.4110341862e-01
 2  1  2     0.0000000000e+00
 2  1  3     0.0000000000e+00
 2  2  1     0.0000000000e+00
 2  2  2    -1.1835743984e+01
 2  2  3    -1.3255635503e+01
 2  3  1     0.0000000000e+00
 2  3  2    -1.3794837996e+01
 2  3  3    -1.1582531059e+01
 3  1  1     5.4558018197e-01
 3  1  2     0.0000000000e+00
 3  1  3     0.0000000000e+00
 3  2  1     0.0000000000e+00
 3  2  2    -1.3794837996e+01
 3  2  3    -1.1582531059e+01
 3  3  1     0.0000000000e+00
 3  3  2    -1.1999541653e+01
 3  3  3    -1.0204313734e+01

   14
0.0000000000e+00 0.0000000000e+00 0.0000000000e+00
-1.6282704600e+00 2.8202471650e+00 0.0000000000e+00
     1      1      3
 1  1  1     0.0000000000e+00
 1  1  2    -1.8739554962e+00
 1  1  3     1.8590841645e+00
 1  2  1     3.4110341862e-01
 1  2  2     0.0000000000e+00
 1  2  3     0.0000000000e+00
 1  3  1    -5.4558018197e-01
 1  3  2     0.0000000000e+00
 1  3  3     0.0000000000e+00
 2  1  1     3.4110341862e-01
 2  1  2     0.0000000000e+00
 2  1  3     0.0000000000e+00
 2  2  1     0.0000000000e+00
 2  2  2    -1.1835743984e+01
 2  2  3     1.3255635503e+01
 2  3  1     0.0000000000e+00
 2  3  2     1.3794837996e+01
 2  3  3    -1.1582531059e+01
 3  1  1    -5.4558018197e-01
 3  1  2     0.0000000000e+00
 3  1  3     0.0000000000e+00
 3  2  1     0.0000000000e+00
 3  2  2     1.3794837996e+01
 3  2  3    -1.1582531059e+01
 3  3  1     0.0000000000e+00
 3  3  2    -1.1999541653e+01
 3  3  3     1.0204313734e+01

   15
0.0000000000e+00 0.0000000000e+00 0.0000000000e+00
1.6282704600e+00 2.8202471650e+00 0.0000000000e+00
     1      1      1
 1  1  1    -4.8872664433e-02
 1  1  2    -8.8809380381e-01
 1  1  3     0.0000000000e+00
 1  2  1    -4.2510225430e-01
 1  2  2    -2.7563303696e+00
 1  2  3     0.0000000000e+00
 1  3  1     0.0000000000e+00
 1  3  2     0.0000000000e+00
 1  3  3    -1.3220578969e+00
 2  1  1    -4.2510225430e-01
 2  1  2    -2.7563303696e+00
 2  1  3     0.0000000000e+00
 2  2  1    -5.1905616047e-01
 2  2  2    -4.9372419298e+00
 2  2  3     0.0000000000e+00
 2  3  1     0.0000000000e+00
 2  3  2     0.0000000000e+00
 2  3  3     6.3696802751e-03
 3  1  1     0.0000000000e+00
 3  1  2     0.0000000000e+00
 3  1  3    -1.3220578969e+00
 3  2  1     0.0000000000e+00
 3  2  2     0.0000000000e+00
 3  2  3     6.3696802751e-03
 3  3  1    -1.3890744229e+00
 3  3  2    -8.3021458140e-01
 3  3  3     0.0000000000e+00

   16
0.0000000000e+00 0.0000000000e+00 0.0000000000e+00
1.6282704600e+00 2.8202471650e+00 0.0000000000e+00
     1      1      2
 1  1  1     2.9174997827e-01
 1  1  2    -2.1851085326e-01
 1  1  3    -2.3892305059e-01
 1  2  1    -1.7148781036e-01
 1  2  2     1.2439875922e-01
 1  2  3    -6.5653786222e-02
 1  3  1    -3.1344432311e-01
 1  3  2    -1.0368020126e-01
 1  3  3     2.1385907084e-02
 2  1  1    -1.7148781036e-01
 2  1  2     1.2439875922e-01
 2  1  3    -6.5653786222e-02
 2  2  1     4.2952459794e-02
 2  2  2     4.1175139591e-01
 2  2  3    -1.6311258826e-01
 2  3  1    -1.0368020126e-01
 2  3  2    -1.9372473886e-01
 2  3  3     1.2347159211e-02
 3  1  1    -3.1344432311e-01
 3  1  2    -1.0368020126e-01
 3  1  3     2.1385907084e-02
 3  2  1    -1.0368020126e-01
 3  2  2    -1.9372473886e-01
 3  2  3     1.2347159211e-02
 3  3  1    -1.3913257438e-01
 3  3  2    -8.0328229264e-02
 3  3  3    -5.1571255152e-02

   17
0.0000000000e+00 0.0000000000e+00 0.0000000000e+00
1.6282704600e+00 2.8202471650e+00 0.0000000000e+00
     1      1      3
 1  1  1     2.9174997827e-01
 1  1  2    -2.1851085326e-01
 1  1  3     2.3892305059e-01
 1  2  1    -1.7148781036e-01
 1  2  2     1.2439875922e-01
 1  2  3     6.5653786222e-02
 1  3  1     3.1344432311e-01
 1  3  2     1.0368020126e-01
 1  3  3     2.1385907084e-02
 2  1  1    -1.7148781036e-01
 2  1  2     1.2439875922e-01
 2  1  3     6.5653786222e-02
 2  2  1     4.2952459794e-02
 2  2  2     4.1175139591e-01
 2  2  3     1.6311258826e-01
 2  3  1     1.0368020126e-01
 2  3  2     1.9372473886e-01
 2  3  3     1.2347159211e-02
 3  1  1     3.1344432311e-01
 3  1  2     1.0368020126e-01
 3  1  3     2.1385907084e-02
 3  2  1     1.0368020126e-01
 3  2  2     1.9372473886e-01
 3  2  3     1.2347159211e-02
 3  3  1    -1.3913257438e-01
 3  3  2    -8.0328229264e-02
 3  3  3     5.1571255152e-02

   18
0.0000000000e+00 0.0000000000e+00 0.0000000000e+00
4.8848113800e+00 2.8202471650e+00 0.0000000000e+00
     1      1      1
 1  1  1     1.5536334610e-01
 1  1  2     1.4258341274e-01
 1  1  3     0.0000000000e+00
 1  2  1    -2.6044288809e-03
 1  2  2    -3.2036457414e-02
 1  2  3     0.0000000000e+00
 1  3  1     0.0000000000e+00
 1  3  2     0.0000000000e+00
 1  3  3    -7.2669396802e-02
 2  1  1    -2.6044288809e-03
 2  1  2    -3.2036457414e-02
 2  1  3     0.0000000000e+00
 2  2  1     2.1943626090e-01
 2  2  2     7.3807241243e-02
 2  2  3     0.0000000000e+00
 2  3  1     0.0000000000e+00
 2  3  2     0.0000000000e+00
 2  3  3    -4.1955695803e-02
 3  1  1     0.0000000000e+00
 3  1  2     0.0000000000e+00
 3  1  3    -7.2669396802e-02
 3  2  1     0.0000000000e+00
 3  2  2     0.0000000000e+00
 3  2  3    -4.1955695803e-02
 3  3  1    -9.1140571917e-03
 3  3  2    -5.2620033727e-03
 3  3  3     0.0000000000e+00

   19
0.0000000000e+00 0.0000000000e+00 0.0000000000e+00
-4.8848113800e+00 2.8202471650e+00 0.0000000000e+00
     1      1      1
 1  1  1    -1.5536334610e-01
 1  1  2     1.4258341274e-01
 1  1  3     0.0000000000e+00
 1  2  1    -2.6044288809e-03
 1  2  2     3.2036457414e-02
 1  2  3     0.0000000000e+00
 1  3  1     0.0000000000e+00
 1  3  2     0.0000000000e+00
 1  3  3     7.2669396802e-02
 2  1  1    -2.6044288809e-03
 2  1  2     3.2036457414e-02
 2  1  3     0.0000000000e+00
 2  2  1    -2.1943626090e-01
 2  2  2     7.3807241243e-02
 2  2  3     0.0000000000e+00
 2  3  1     0.0000000000e+00
 2  3  2     0.0000000000e+00
 2  3  3    -4.1955695803e-02
 3  1  1     0.0000000000e+00
 3  1  2     0.0000000000e+00
 3  1  3     7.2669396802e-02
 3  2  1     0.0000000000e+00
 3  2  2     0.0000000000e+00
 3  2  3    -4.1955695803e-02
 3  3  1     9.1140571917e-03
 3  3  2    -5.2620033727e-03
 3  3  3     0.0000000000e+00

   20
0.0000000000e+00 0.0000000000e+00 0.0000000000e+00
-4.8848113800e+00 2.8202471650e+00 0.0000000000e+00
     1      1      2
 1  1  1    -2.9174997827e-01
 1  1  2    -2.1851085326e-01
 1  1  3    -2.3892305059e-01
 1  2  1    -1.7148781036e-01
 1  2  2    -1.2439875922e-01
 1  2  3     6.5653786222e-02
 1  3  1    -3.1344432311e-01
 1  3  2     1.0368020126e-01
 1  3  3    -2.1385907084e-02
 2  1  1    -1.7148781036e-01
 2  1  2    -1.2439875922e-01
 2  1  3     6.5653786222e-02
 2  2  1    -4.2952459794e-02
 2  2  2     4.1175139591e-01
 2  2  3    -1.6311258826e-01
 2  3  1     1.0368020126e-01
 2  3  2    -1.9372473886e-01
 2  3  3     1.2347159211e-02
 3  1  1    -3.1344432311e-01
 3  1  2     1.0368020126e-01
 3  1  3    -2.1385907084e-02
 3  2  1     1.0368020126e-01
 3  2  2    -1.9372473886e-01
 3  2  3     1.2347159211e-02
 3  3  1     1.3913257438e-01
 3  3  2    -8.0328229264e-02
 3  3  3    -5.1571255152e-02

   21
0.0000000000e+00 0.0000000000e+00 0.0000000000e+00
-4.8848113800e+00 2.8202471650e+00 0.0000000000e+00
     1      1      3
 1  1  1    -2.9174997827e-01
 1  1  2    -2.1851085326e-01
 1  1  3     2.3892305059e-01
 1  2  1    -1.7148781036e-01
 1  2  2    -1.2439875922e-01
 1  2  3    -6.5653786222e-02
 1  3  1     3.1344432311e-01
 1  3  2    -1.0368020126e-01
 1  3  3    -2.1385907084e-02
 2  1  1    -1.7148781036e-01
 2  1  2    -1.2439875922e-01
 2  1  3    -6.5653786222e-02
 2  2  1    -4.2952459794e-02
 2  2  2     4.1175139591e-01
 2  2  3     1.6311258826e-01
 2  3  1    -1.0368020126e-01
 2  3  2     1.9372473886e-01
 2  3  3     1.2347159211e-02
 3  1  1     3.1344432311e-01
 3  1  2    -1.0368020126e-01
 3  1  3    -2.1385907084e-02
 3  2  1    -1.0368020126e-01
 3  2  2     1.9372473886e-01
 3  2  3     1.2347159211e-02
 3  3  1     1.3913257438e-01
 3  3  2    -8.0328229264e-02
 3  3  3     5.1571255152e-02

   22
0.0000000000e+00 0.0000000000e+00 0.0000000000e+00
-3.2565409200e+00 5.6404943300e+00 0.0000000000e+00
     1      1      2
 1  1  1    -9.8241635260e-02
 1  1  2     6.9412964509e-02
 1  1  3     9.8159992036e-02
 1  2  1    -6.6130744890e-02
 1  2  2    -3.7956628821e-02
 1  2  3    -3.6060745975e-02
 1  3  1    -7.1075554279e-02
 1  3  2     1.0426878637e-01
 1  3  3    -1.1063623471e-01
 2  1  1    -6.6130744890e-02
 2  1  2    -3.7956628821e-02
 2  1  3    -3.6060745975e-02
 2  2  1     5.8494333971e-02
 2  2  2     7.7952887457e-02
 2  2  3     1.7507909831e-02
 2  3  1    -7.2885622535e-02
 2  3  2    -6.9744271028e-02
 2  3  3    -1.1782953802e-01
 3  1  1    -7.1075554279e-02
 3  1  2     1.0426878637e-01
 3  1  3    -1.1063623471e-01
 3  2  1    -7.2885622535e-02
 3  2  2    -6.9744271028e-02
 3  2  3    -1.1782953802e-01
 3  3  1    -1.5318921272e-01
 3  3  2     1.5294656090e-01
 3  3  3    -1.6197215076e-01

   23
0.0000000000e+00 0.0000000000e+00 0.0000000000e+00
-3.2565409200e+00 5.6404943300e+00 0.0000000000e+00
     1      1      3
 1  1  1    -9.8241635260e-02
 1  1  2     6.9412964509e-02
 1  1  3    -9.8159992036e-02
 1  2  1    -6.6130744890e-02
 1  2  2    -3.7956628821e-02
 1  2  3     3.6060745975e-02
 1  3  1     7.1075554279e-02
 1  3  2    -1.0426878637e-01
 1  3  3    -1.1063623471e-01
 2  1  1    -6.6130744890e-02
 2  1  2    -3.7956628821e-02
 2  1  3     3.6060745975e-02
 2  2  1     5.8494333971e-02
 2  2  2     7.7952887457e-02
 2  2  3    -1.7507909831e-02
 2  3  1     7.2885622535e-02
 2  3  2     6.9744271028e-02
 2  3  3    -1.1782953802e-01
 3  1  1     7.1075554279e-02
 3  1  2    -1.0426878637e-01
 3  1  3    -1.1063623471e-01
 3  2  1     7.2885622535e-02
 3  2  2     6.9744271028e-02
 3  2  3    -1.1782953802e-01
 3  3  1    -1.5318921272e-01
 3  3  2     1.5294656090e-01
 3  3  3     1.6197215076e-01

   24
0.0000000000e+00 0.0000000000e+00 0.0000000000e+00
-5.5511151231e-16 5.6404943300e+00 0.0000000000e+00
     1      1      1
 1  1  1     0.0000000000e+00
 1  1  2    -1.0058676717e-01
 1  1  3     0.0000000000e+00
 1  2  1    -2.0169140687e-01
 1  2  2     0.0000000000e+00
 1  2  3     0.0000000000e+00
 1  3  1     0.0000000000e+00
 1  3  2     0.0000000000e+00
 1  3  3     0.0000000000e+00
 2  1  1    -2.0169140687e-01
 2  1  2     0.0000000000e+00
 2  1  3     0.0000000000e+00
 2  2  1     0.0000000000e+00
 2  2  2     1.7357465756e-01
 2  2  3     0.0000000000e+00
 2  3  1     0.0000000000e+00
 2  3  2     0.0000000000e+00
 2  3  3     2.5663544435e-03
 3  1  1     0.0000000000e+00
 3  1  2     0.0000000000e+00
 3  1  3     0.0000000000e+00
 3  2  1     0.0000000000e+00
 3  2  2     0.0000000000e+00
 3  2  3     2.5663544435e-03
 3  3  1     0.0000000000e+00
 3  3  2    -3.4579513242e-02
 3  3  3     0.0000000000e+00

   25
0.0000000000e+00 0.0000000000e+00 0.0000000000e+00
0.0000000000e+00 5.6404943300e+00 0.0000000000e+00
     1      1      2
 1  1  1     9.8241635260e-02
 1  1  2     6.9412964509e-02
 1  1  3     9.8159992036e-02
 1  2  1    -6.6130744890e-02
 1  2  2     3.7956628821e-02
 1  2  3     3.6060745975e-02
 1  3  1    -7.1075554279e-02
 1  3  2    -1.0426878637e-01
 1  3  3     1.1063623471e-01
 2  1  1    -6.6130744890e-02
 2  1  2     3.7956628821e-02
 2  1  3     3.6060745975e-02
 2  2  1    -5.8494333971e-02
 2  2  2     7.7952887457e-02
 2  2  3     1.7507909831e-02
 2  3  1     7.2885622535e-02
 2  3  2    -6.9744271028e-02
 2  3  3    -1.1782953802e-01
 3  1  1    -7.1075554279e-02
 3  1  2    -1.0426878637e-01
 3  1  3     1.1063623471e-01
 3  2  1     7.2885622535e-02
 3  2  2    -6.9744271028e-02
 3  2  3    -1.1782953802e-01
 3  3  1     1.5318921272e-01
 3  3  2     1.5294656090e-01
 3  3  3    -1.6197215076e-01

   26
0.0000000000e+00 0.0000000000e+00 0.0000000000e+00
0.0000000000e+00 5.6404943300e+00 0.0000000000e+00
     1      1      3
 1  1  1     9.8241635260e-02
 1  1  2     6.9412964509e-02
 1  1  3    -9.8159992036e-02
 1  2  1    -6.6130744890e-02
 1  2  2     3.7956628821e-02
 1  2  3    -3.6060745975e-02
 1  3  1     7.1075554279e-02
 1  3  2     1.0426878637e-01
 1  3  3     1.1063623471e-01
 2  1  1    -6.6130744890e-02
 2  1  2     3.7956628821e-02
 2  1  3    -3.6060745975e-02
 2  2  1    -5.8494333971e-02
 2  2  2     7.7952887457e-02
 2  2  3    -1.7507909831e-02
 2  3  1    -7.2885622535e-02
 2  3  2     6.9744271028e-02
 2  3  3    -1.1782953802e-01
 3  1  1     7.1075554279e-02
 3  1  2     1.0426878637e-01
 3  1  3     1.1063623471e-01
 3  2  1    -7.2885622535e-02
 3  2  2     6.9744271028e-02
 3  2  3    -1.1782953802e-01
 3  3  1     1.5318921272e-01
 3  3  2     1.5294656090e-01
 3  3  3     1.6197215076e-01

   27
0.0000000000e+00 0.0000000000e+00 0.0000000000e+00
0.0000000000e+00 -5.6404943300e+00 0.0000000000e+00
     1      1      1
 1  1  1     0.0000000000e+00
 1  1  2    -2.3749134019e-01
 1  1  3     0.0000000000e+00
 1  2  1     5.2884343057e-02
 1  2  2     0.0000000000e+00
 1  2  3     0.0000000000e+00
 1  3  1     0.0000000000e+00
 1  3  2     0.0000000000e+00
 1  3  3     0.0000000000e+00
 2  1  1     5.2884343057e-02
 2  1  2     0.0000000000e+00
 2  1  3     0.0000000000e+00
 2  2  1     0.0000000000e+00
 2  2  2    -1.9528996778e-01
 2  2  3     0.0000000000e+00
 2  3  1     0.0000000000e+00
 2  3  2     0.0000000000e+00
 2  3  3     8.3911391606e-02
 3  1  1     0.0000000000e+00
 3  1  2     0.0000000000e+00
 3  1  3     0.0000000000e+00
 3  2  1     0.0000000000e+00
 3  2  2     0.0000000000e+00
 3  2  3     8.3911391606e-02
 3  3  1     0.0000000000e+00
 3  3  2     1.0524006745e-02
 3  3  3     0.0000000000e+00

   28
0.0000000000e+00 0.0000000000e+00 0.0000000000e+00
1.6282704600e+00 -2.8202471650e+00 0.0000000000e+00
     1      1      1
 1  1  1    -1.3151824063e+00
 1  1  2     7.9784280594e-01
 1  1  3     0.0000000000e+00
 1  2  1     2.5038833316e+00
 1  2  2    -1.9261423644e+00
 1  2  3     0.0000000000e+00
 1  3  1     0.0000000000e+00
 1  3  2     0.0000000000e+00
 1  3  3     6.6654525337e-01
 2  1  1     2.5038833316e+00
 2  1  2    -1.9261423644e+00
 2  1  3     0.0000000000e+00
 2  2  1    -3.4457419126e+00
 2  2  2     2.6066658508e+00
 2  2  3     0.0000000000e+00
 2  3  1     0.0000000000e+00
 2  3  2     0.0000000000e+00
 2  3  3     1.1417508837e+00
 3  1  1     0.0000000000e+00
 3  1  2     0.0000000000e+00
 3  1  3     6.6654525337e-01
 3  2  1     0.0000000000e+00
 3  2  2     0.0000000000e+00
 3  2  3     1.1417508837e+00
 3  3  1    -2.4449706703e-02
 3  3  2     1.6180810286e+00
 3  3  3     0.0000000000e+00

   29
0.0000000000e+00 0.0000000000e+00 0.0000000000e+00
1.6282704600e+00 -2.8202471650e+00 0.0000000000e+00
     1      1      2
 1  1  1     1.8212479982e-02
 1  1  2    -5.4348063190e-02
 1  1  3     6.4414082875e-03
 1  2  1    -7.0105192493e-02
 1  2  2    -7.6073336216e-02
 1  2  3     1.6893003038e-02
 1  3  1    -5.6487783281e-02
 1  3  2    -8.1307876047e-02
 1  3  3    -1.5736149060e-01
 2  1  1    -7.0105192493e-02
 2  1  2    -7.6073336216e-02
 2  1  3     1.6893003038e-02
 2  2  1     8.9536440836e-02
 2  2  2    -5.3757035430e-02
 2  2  3     1.0922649357e-01
 2  3  1     9.5846532857e-02
 2  3  2    -8.4332042024e-02
 2  3  3    -3.6899020817e-02
 3  1  1    -5.6487783281e-02
 3  1  2    -8.1307876047e-02
 3  1  3    -1.5736149060e-01
 3  2  1     9.5846532857e-02
 3  2  2    -8.4332042024e-02
 3  2  3    -3.6899020817e-02
 3  3  1     5.5861000815e-02
 3  3  2    -2.0913903024e-01
 3  3  3    -1.6197215076e-01

   30
0.0000000000e+00 0.0000000000e+00 0.0000000000e+00
1.6282704600e+00 -2.8202471650e+00 0.0000000000e+00
     1      1      3
 1  1  1     1.8212479982e-02
 1  1  2    -5.4348063190e-02
 1  1  3    -6.4414082875e-03
 1  2  1    -7.0105192493e-02
 1  2  2    -7.6073336216e-02
 1  2  3    -1.6893003038e-02
 1  3  1     5.6487783281e-02
 1  3  2     8.1307876047e-02
 1  3  3    -1.5736149060e-01
 2  1  1    -7.0105192493e-02
 2  1  2    -7.6073336216e-02
 2  1  3    -1.6893003038e-02
 2  2  1     8.9536440836e-02
 2  2  2    -5.3757035430e-02
 2  2  3    -1.0922649357e-01
 2  3  1    -9.5846532857e-02
 2  3  2     8.4332042024e-02
 2  3  3    -3.6899020817e-02
 3  1  1     5.6487783281e-02
 3  1  2     8.1307876047e-02
 3  1  3    -1.5736149060e-01
 3  2  1    -9.5846532857e-02
 3  2  2     8.4332042024e-02
 3  2  3    -3.6899020817e-02
 3  3  1     5.5861000815e-02
 3  3  2    -2.0913903024e-01
 3  3  3     1.6197215076e-01

   31
0.0000000000e+00 0.0000000000e+00 0.0000000000e+00
4.8848113800e+00 -2.8202471650e+00 0.0000000000e+00
     1      1      1
 1  1  1     3.6274322409e-03
 1  1  2    -2.0378570585e-01
 1  1  3     0.0000000000e+00
 1  2  1    -1.5323338600e-01
 1  2  2    -2.7977251392e-02
 1  2  3     0.0000000000e+00
 1  3  1     0.0000000000e+00
 1  3  2     0.0000000000e+00
 1  3  3     2.2225281434e-03
 2  1  1    -1.5323338600e-01
 2  1  2    -2.7977251392e-02
 2  1  3     0.0000000000e+00
 2  2  1     5.9581935025e-02
 2  2  2     1.6729176062e-01
 2  2  3     0.0000000000e+00
 2  3  1     0.0000000000e+00
 2  3  2     0.0000000000e+00
 2  3  3    -1.2831772218e-03
 3  1  1     0.0000000000e+00
 3  1  2     0.0000000000e+00
 3  1  3     2.2225281434e-03
 3  2  1     0.0000000000e+00
 3  2  2     0.0000000000e+00
 3  2  3    -1.2831772218e-03
 3  3  1    -2.9946736920e-02
 3  3  2     1.7289756621e-02
 3  3  3     0.0000000000e+00

   32
0.0000000000e+00 0.0000000000e+00 0.0000000000e+00
-4.8848113800e+00 -2.8202471650e+00 0.0000000000e+00
     1      1      1
 1  1  1    -3.6274322409e-03
 1  1  2    -2.0378570585e-01
 1  1  3     0.0000000000e+00
 1  2  1    -1.5323338600e-01
 1  2  2     2.7977251392e-02
 1  2  3     0.0000000000e+00
 1  3  1     0.0000000000e+00
 1  3  2     0.0000000000e+00
 1  3  3    -2.2225281434e-03
 2  1  1    -1.5323338600e-01
 2  1  2     2.7977251392e-02
 2  1  3     0.0000000000e+00
 2  2  1    -5.9581935025e-02
 2  2  2     1.6729176062e-01
 2  2  3     0.0000000000e+00
 2  3  1     0.0000000000e+00
 2  3  2     0.0000000000e+00
 2  3  3    -1.2831772218e-03
 3  1  1     0.0000000000e+00
 3  1  2     0.0000000000e+00
 3  1  3    -2.2225281434e-03
 3  2  1     0.0000000000e+00
 3  2  2     0.0000000000e+00