 1046

    1
0.0000000000e+00 0.0000000000e+00 0.0000000000e+00
0.0000000000e+00 0.0000000000e+00 0.0000000000e+00
     1      1      1
 1  1  1     0.0000000000e+00
 1  1  2     0.0000000000e+00
 1  1  3     0.0000000000e+00
 1  2  1     0.0000000000e+00
 1  2  2     0.0000000000e+00
 1  2  3     0.0000000000e+00
 1  3  1     0.0000000000e+00
 1  3  2     0.0000000000e+00
 1  3  3     0.0000000000e+00
 2  1  1     0.0000000000e+00
 2  1  2     0.0000000000e+00
 2  1  3     0.0000000000e+00
 2  2  1     0.0000000000e+00
 2  2  2     0.0000000000e+00
 2  2  3     0.0000000000e+00
 2  3  1     0.0000000000e+00
 2  3  2     0.0000000000e+00
 2  3  3     0.0000000000e+00
 3  1  1     0.0000000000e+00
 3  1  2     0.0000000000e+00
 3  1  3     0.0000000000e+00
 3  2  1     0.0000000000e+00
 3  2  2     0.0000000000e+00
 3  2  3     0.0000000000e+00
 3  3  1     0.0000000000e+00
 3  3  2     0.0000000000e+00
 3  3  3     0.0000000000e+00

    2
0.0000000000e+00 0.0000000000e+00 0.0000000000e+00
0.0000000000e+00 0.0000000000e+00 0.0000000000e+00
     1      1      2
 1  1  1     3.9487643272e-02
 1  1  2     5.9997077627e-02
 1  1  3     5.9997077627e-02
 1  2  1     4.7436361729e-02
 1  2  2    -4.7436361729e-02
 1  2  3    -1.0472554958e-01
 1  3  1     4.7436361729e-02
 1  3  2    -1.0472554958e-01
 1  3  3    -4.7436361729e-02
 2  1  1     4.7436361729e-02
 2  1  2    -4.7436361729e-02
 2  1  3    -1.0472554958e-01
 2  2  1    -5.9997077627e-02
 2  2  2    -3.9487643272e-02
 2  2  3     5.9997077627e-02
 2  3  1    -1.0472554958e-01
 2  3  2     4.7436361729e-02
 2  3  3     4.7436361729e-02
 3  1  1     4.7436361729e-02
 3  1  2    -1.0472554958e-01
 3  1  3    -4.7436361729e-02
 3  2  1    -1.0472554958e-01
 3  2  2     4.7436361729e-02
 3  2  3     4.7436361729e-02
 3  3  1    -5.9997077627e-02
 3  3  2     5.9997077627e-02
 3  3  3    -3.9487643272e-02

    3
0.0000000000e+00 0.0000000000e+00 0.0000000000e+00
-2.2618092349e+00 0.0000000000e+00 2.2618092349e+00
     1      1      1
 1  1  1     8.4846407635e-02
 1  1  2     0.0000000000e+00
 1  1  3    -3.5693880173e-01
 1  2  1     0.0000000000e+00
 1  2  2    -1.7115834752e-01
 1  2  3     0.0000000000e+00
 1  3  1    -3.6700408396e-01
 1  3  2     0.0000000000e+00
 1  3  3     3.6700408396e-01
 2  1  1     0.0000000000e+00
 2  1  2    -1.7115834752e-01
 2  1  3     0.0000000000e+00
 2  2  1    -1.6240028469e-01
 2  2  2     0.0000000000e+00
 2  2  3     1.6240028469e-01
 2  3  1     0.0000000000e+00
 2  3  2     1.7115834752e-01
 2  3  3     0.0000000000e+00
 3  1  1    -3.6700408396e-01
 3  1  2     0.0000000000e+00
 3  1  3     3.6700408396e-01
 3  2  1     0.0000000000e+00
 3  2  2     1.7115834752e-01
 3  2  3     0.0000000000e+00
 3  3  1     3.5693880173e-01
 3  3  2     0.0000000000e+00
 3  3  3    -8.4846407635e-02

    4
0.0000000000e+00 0.0000000000e+00 0.0000000000e+00
4.5236184698e+00 0.0000000000e+00 -4.5236184698e+00
     1      1      2
 1  1  1    -3.9487643272e-02
 1  1  2     5.9997077627e-02
 1  1  3    -5.9997077627e-02
 1  2  1     4.7436361729e-02
 1  2  2     4.7436361729e-02
 1  2  3    -1.0472554958e-01
 1  3  1    -4.7436361729e-02
 1  3  2    -1.0472554958e-01
 1  3  3     4.7436361729e-02
 2  1  1     4.7436361729e-02
 2  1  2     4.7436361729e-02
 2  1  3    -1.0472554958e-01
 2  2  1     5.9997077627e-02
 2  2  2    -3.9487643272e-02
 2  2  3    -5.9997077627e-02
 2  3  1    -1.0472554958e-01
 2  3  2    -4.7436361729e-02
 2  3  3     4.7436361729e-02
 3  1  1    -4.7436361729e-02
 3  1  2    -1.0472554958e-01
 3  1  3     4.7436361729e-02
 3  2  1    -1.0472554958e-01
 3  2  2    -4.7436361729e-02
 3  2  3     4.7436361729e-02
 3  3  1     5.9997077627e-02
 3  3  2     5.9997077627e-02
 3  3  3     3.9487643272e-02

    5
0.0000000000e+00 0.0000000000e+00 0.0000000000e+00
2.2618092349e+00 0.0000000000e+00 -2.2618092349e+00
     1      1      1
 1  1  1    -8.4846407635e-02
 1  1  2     0.0000000000e+00
 1  1  3     3.5693880173e-01
 1  2  1     0.0000000000e+00
 1  2  2     1.7115834752e-01
 1  2  3     0.0000000000e+00
 1  3  1     3.6700408396e-01
 1  3  2     0.0000000000e+00
 1  3  3    -3.6700408396e-01
 2  1  1     0.0000000000e+00
 2  1  2     1.7115834752e-01
 2  1  3     0.0000000000e+00
 2  2  1     1.6240028469e-01
 2  2  2     0.0000000000e+00
 2  2  3    -1.6240028469e-01
 2  3  1     0.0000000000e+00
 2  3  2    -1.7115834752e-01
 2  3  3     0.0000000000e+00
 3  1  1     3.6700408396e-01
 3  1  2     0.0000000000e+00
 3  1  3    -3.6700408396e-01
 3  2  1     0.0000000000e+00
 3  2  2    -1.7115834752e-01
 3  2  3     0.0000000000e+00
 3  3  1    -3.5693880173e-01
 3  3  2     0.0000000000e+00
 3  3  3     8.4846407635e-02

    6
0.0000000000e+00 0.0000000000e+00 0.0000000000e+00
2.2618092349e+00 0.0000000000e+00 -2.2618092349e+00
     1      1      2
 1  1  1     0.0000000000e+00
 1  1  2     4.9398568182e-01
 1  1  3     0.0000000000e+00
 1  2  1     2.6305118324e-01
 1  2  2     0.0000000000e+00
 1  2  3     0.0000000000e+00
 1  3  1     0.0000000000e+00
 1  3  2     0.0000000000e+00
 1  3  3     0.0000000000e+00
 2  1  1     2.6305118324e-01
 2  1  2     0.0000000000e+00
 2  1  3     0.0000000000e+00
 2  2  1     0.0000000000e+00
 2  2  2    -1.0776172021e+01
 2  2  3     0.0000000000e+00
 2  3  1     0.0000000000e+00
 2  3  2     0.0000000000e+00
 2  3  3     2.6305118324e-01
 3  1  1     0.0000000000e+00
 3  1  2     0.0000000000e+00
 3  1  3     0.0000000000e+00
 3  2  1     0.0000000000e+00
 3  2  2     0.0000000000e+00
 3  2  3     2.6305118324e-01
 3  3  1     0.0000000000e+00
 3  3  2     4.9398568182e-01
 3  3  3     0.0000000000e+00

    7
0.0000000000e+00 0.0000000000e+00 0.0000000000e+00
0.0000000000e+00 2.2618092349e+00 2.2618092349e+00
     1      1      1
 1  1  1     0.0000000000e+00
 1  1  2     1.6240028469e-01
 1  1  3     1.6240028469e-01
 1  2  1     1.7115834752e-01
 1  2  2     0.0000000000e+00
 1  2  3     0.0000000000e+00
 1  3  1     1.7115834752e-01
 1  3  2     0.0000000000e+00
 1  3  3     0.0000000000e+00
 2  1  1     1.7115834752e-01
 2  1  2     0.0000000000e+00
 2  1  3     0.0000000000e+00
 2  2  1     0.0000000000e+00
 2  2  2    -8.4846407635e-02
 2  2  3    -3.5693880173e-01
 2  3  1     0.0000000000e+00
 2  3  2    -3.6700408396e-01
 2  3  3    -3.6700408396e-01
 3  1  1     1.7115834752e-01
 3  1  2     0.0000000000e+00
 3  1  3     0.0000000000e+00
 3  2  1     0.0000000000e+00
 3  2  2    -3.6700408396e-01
 3  2  3    -3.6700408396e-01
 3  3  1     0.0000000000e+00
 3  3  2    -3.5693880173e-01
 3  3  3    -8.4846407635e-02

    8
0.0000000000e+00 0.0000000000e+00 0.0000000000e+00
0.0000000000e+00 -4.5236184698e+00 -4.5236184698e+00
     1      1      2
 1  1  1     3.9487643272e-02
 1  1  2    -5.9997077627e-02
 1  1  3    -5.9997077627e-02
 1  2  1    -4.7436361729e-02
 1  2  2    -4.7436361729e-02
 1  2  3    -1.0472554958e-01
 1  3  1    -4.7436361729e-02
 1  3  2    -1.0472554958e-01
 1  3  3    -4.7436361729e-02
 2  1  1    -4.7436361729e-02
 2  1  2    -4.7436361729e-02
 2  1  3    -1.0472554958e-01
 2  2  1    -5.9997077627e-02
 2  2  2     3.9487643272e-02
 2  2  3    -5.9997077627e-02
 2  3  1    -1.0472554958e-01
 2  3  2    -4.7436361729e-02
 2  3  3    -4.7436361729e-02
 3  1  1    -4.7436361729e-02
 3  1  2    -1.0472554958e-01
 3  1  3    -4.7436361729e-02
 3  2  1    -1.0472554958e-01
 3  2  2    -4.7436361729e-02
 3  2  3    -4.7436361729e-02
 3  3  1    -5.9997077627e-02
 3  3  2    -5.9997077627e-02
 3  3  3     3.9487643272e-02

    9
0.0000000000e+00 0.0000000000e+00 0.0000000000e+00
2.2618092349e+00 2.2618092349e+00 -3.1059280527e-16
     1      1      1
 1  1  1    -8.4846407635e-02
 1  1  2    -3.5693880173e-01
 1  1  3     0.0000000000e+00
 1  2  1    -3.6700408396e-01
 1  2  2    -3.6700408396e-01
 1  2  3     0.0000000000e+00
 1  3  1     0.0000000000e+00
 1  3  2     0.0000000000e+00
 1  3  3     1.7115834752e-01
 2  1  1    -3.6700408396e-01
 2  1  2    -3.6700408396e-01
 2  1  3     0.0000000000e+00
 2  2  1    -3.5693880173e-01
 2  2  2    -8.4846407635e-02
 2  2  3     0.0000000000e+00
 2  3  1     0.0000000000e+00
 2  3  2     0.0000000000e+00
 2  3  3     1.7115834752e-01
 3  1  1     0.0000000000e+00
 3  1  2     0.0000000000e+00
 3  1  3     1.7115834752e-01
 3  2  1     0.0000000000e+00
 3  2  2     0.0000000000e+00
 3  2  3     1.7115834752e-01
 3  3  1     1.6240028469e-01
 3  3  2     1.6240028469e-01
 3  3  3     0.0000000000e+00

   10
0.0000000000e+00 0.0000000000e+00 0.0000000000e+00
0.0000000000e+00 -2.2618092349e+00 -2.2618092349e+00
     1      1      1
 1  1  1     0.0000000000e+00
 1  1  2    -1.6240028469e-01
 1  1  3    -1.6240028469e-01
 1  2  1    -1.7115834752e-01
 1  2  2     0.0000000000e+00
 1  2  3     0.0000000000e+00
 1  3  1    -1.7115834752e-01
 1  3  2     0.0000000000e+00
 1  3  3     0.0000000000e+00
 2  1  1    -1.7115834752e-01
 2  1  2     0.0000000000e+00
 2  1  3     0.0000000000e+00
 2  2  1     0.0000000000e+00
 2  2  2     8.4846407635e-02
 2  2  3     3.5693880173e-01
 2  3  1     0.0000000000e+00
 2  3  2     3.6700408396e-01
 2  3  3     3.6700408396e-01
 3  1  1    -1.7115834752e-01
 3  1  2     0.0000000000e+00
 3  1  3     0.0000000000e+00
 3  2  1     0.0000000000e+00
 3  2  2     3.6700408396e-01
 3  2  3     3.6700408396e-01
 3  3  1     0.0000000000e+00
 3  3  2     3.5693880173e-01
 3  3  3     8.4846407635e-02

   11
0.0000000000e+00 0.0000000000e+00 0.0000000000e+00
0.0000000000e+00 -2.2618092349e+00 -2.2618092349e+00
     1      1      2
 1  1  1     1.0776172021e+01
 1  1  2     0.0000000000e+00
 1  1  3     0.0000000000e+00
 1  2  1     0.0000000000e+00
 1  2  2    -2.6305118324e-01
 1  2  3     0.0000000000e+00
 1  3  1     0.0000000000e+00
 1  3  2     0.0000000000e+00
 1  3  3    -2.6305118324e-01
 2  1  1     0.0000000000e+00
 2  1  2    -2.6305118324e-01
 2  1  3     0.0000000000e+00
 2  2  1    -4.9398568182e-01
 2  2  2     0.0000000000e+00
 2  2  3     0.0000000000e+00
 2  3  1     0.0000000000e+00
 2  3  2     0.0000000000e+00
 2  3  3     0.0000000000e+00
 3  1  1     0.0000000000e+00
 3  1  2     0.0000000000e+00
 3  1  3    -2.6305118324e-01
 3  2  1     0.0000000000e+00
 3  2  2     0.0000000000e+00
 3  2  3     0.0000000000e+00
 3  3  1    -4.9398568182e-01
 3  3  2     0.0000000000e+00
 3  3  3     0.0000000000e+00

   12
0.0000000000e+00 0.0000000000e+00 0.0000000000e+00
-2.2618092349e+00 -2.2618092349e+00 -3.4362985438e-16
     1      1      1
 1  1  1     8.4846407635e-02
 1  1  2     3.5693880173e-01
 1  1  3     0.0000000000e+00
 1  2  1     3.6700408396e-01
 1  2  2     3.6700408396e-01
 1  2  3     0.0000000000e+00
 1  3  1     0.0000000000e+00
 1  3  2     0.0000000000e+00
 1  3  3    -1.7115834752e-01
 2  1  1     3.6700408396e-01
 2  1  2     3.6700408396e-01
 2  1  3     0.0000000000e+00
 2  2  1     3.5693880173e-01
 2  2  2     8.4846407635e-02
 2  2  3     0.0000000000e+00
 2  3  1     0.0000000000e+00
 2  3  2     0.0000000000e+00
 2  3  3    -1.7115834752e-01
 3  1  1     0.0000000000e+00
 3  1  2     0.0000000000e+00
 3  1  3    -1.7115834752e-01
 3  2  1     0.0000000000e+00
 3  2  2     0.0000000000e+00
 3  2  3    -1.7115834752e-01
 3  3  1    -1.6240028469e-01
 3  3  2    -1.6240028469e-01
 3  3  3     0.0000000000e+00

   13
0.0000000000e+00 0.0000000000e+00 0.0000000000e+00
2.2618092349e+00 -2.2618092349e+00 -4.5236184698e+00
     1      1      2
 1  1  1     0.0000000000e+00
 1  1  2     0.0000000000e+00
 1  1  3    -4.9398568182e-01
 1  2  1     0.0000000000e+00
 1  2  2     0.0000000000e+00
 1  2  3     0.0000000000e+00
 1  3  1    -2.6305118324e-01
 1  3  2     0.0000000000e+00
 1  3  3     0.0000000000e+00
 2  1  1     0.0000000000e+00
 2  1  2     0.0000000000e+00
 2  1  3     0.0000000000e+00
 2  2  1     0.0000000000e+00
 2  2  2     0.0000000000e+00
 2  2  3    -4.9398568182e-01
 2  3  1     0.0000000000e+00
 2  3  2    -2.6305118324e-01
 2  3  3     0.0000000000e+00
 3  1  1    -2.6305118324e-01
 3  1  2     0.0000000000e+00
 3  1  3     0.0000000000e+00
 3  2  1     0.0000000000e+00
 3  2  2    -2.6305118324e-01
 3  2  3     0.0000000000e+00
 3  3  1     0.0000000000e+00
 3  3  2     0.0000000000e+00
 3  3  3     1.0776172021e+01

   14
0.0000000000e+00 0.0000000000e+00 0.0000000000e+00
-2.2618092349e+00 2.2618092349e+00 0.0000000000e+00
     1      1      1
 1  1  1     8.4846407635e-02
 1  1  2    -3.5693880173e-01
 1  1  3     0.0000000000e+00
 1  2  1    -3.6700408396e-01
 1  2  2     3.6700408396e-01
 1  2  3     0.0000000000e+00
 1  3  1     0.0000000000e+00
 1  3  2     0.0000000000e+00
 1  3  3    -1.7115834752e-01
 2  1  1    -3.6700408396e-01
 2  1  2     3.6700408396e-01
 2  1  3     0.0000000000e+00
 2  2  1     3.5693880173e-01
 2  2  2    -8.4846407635e-02
 2  2  3     0.0000000000e+00
 2  3  1     0.0000000000e+00
 2  3  2     0.0000000000e+00
 2  3  3     1.7115834752e-01
 3  1  1     0.0000000000e+00
 3  1  2     0.0000000000e+00
 3  1  3    -1.7115834752e-01
 3  2  1     0.0000000000e+00
 3  2  2     0.0000000000e+00
 3  2  3     1.7115834752e-01
 3  3  1    -1.6240028469e-01
 3  3  2     1.6240028469e-01
 3  3  3     0.0000000000e+00

   15
0.0000000000e+00 0.0000000000e+00 0.0000000000e+00
4.5236184698e+00 -4.5236184698e+00 0.0000000000e+00
     1      1      2
 1  1  1    -3.9487643272e-02
 1  1  2    -5.9997077627e-02
 1  1  3     5.9997077627e-02
 1  2  1    -4.7436361729e-02
 1  2  2     4.7436361729e-02
 1  2  3    -1.0472554958e-01
 1  3  1     4.7436361729e-02
 1  3  2    -1.0472554958e-01
 1  3  3     4.7436361729e-02
 2  1  1    -4.7436361729e-02
 2  1  2     4.7436361729e-02
 2  1  3    -1.0472554958e-01
 2  2  1     5.9997077627e-02
 2  2  2     3.9487643272e-02
 2  2  3     5.9997077627e-02
 2  3  1    -1.0472554958e-01
 2  3  2     4.7436361729e-02
 2  3  3    -4.7436361729e-02
 3  1  1     4.7436361729e-02
 3  1  2    -1.0472554958e-01
 3  1  3     4.7436361729e-02
 3  2  1    -1.0472554958e-01
 3  2  2     4.7436361729e-02
 3  2  3    -4.7436361729e-02
 3  3  1     5.9997077627e-02
 3  3  2    -5.9997077627e-02
 3  3  3    -3.9487643272e-02

   16
0.0000000000e+00 0.0000000000e+00 0.0000000000e+00
3.1059280527e-16 2.2618092349e+00 -2.2618092349e+00
     1      1      1
 1  1  1     0.0000000000e+00
 1  1  2     1.6240028469e-01
 1  1  3    -1.6240028469e-01
 1  2  1     1.7115834752e-01
 1  2  2     0.0000000000e+00
 1  2  3     0.0000000000e+00
 1  3  1    -1.7115834752e-01
 1  3  2     0.0000000000e+00
 1  3  3     0.0000000000e+00
 2  1  1     1.7115834752e-01
 2  1  2     0.0000000000e+00
 2  1  3     0.0000000000e+00
 2  2  1     0.0000000000e+00
 2  2  2    -8.4846407635e-02
 2  2  3     3.5693880173e-01
 2  3  1     0.0000000000e+00
 2  3  2     3.6700408396e-01
 2  3  3    -3.6700408396e-01
 3  1  1    -1.7115834752e-01
 3  1  2     0.0000000000e+00
 3  1  3     0.0000000000e+00
 3  2  1     0.0000000000e+00
 3  2  2     3.6700408396e-01
 3  2  3    -3.6700408396e-01
 3  3  1     0.0000000000e+00
 3  3  2    -3.5693880173e-01
 3  3  3     8.4846407635e-02

   17
0.0000000000e+00 0.0000000000e+00 0.0000000000e+00
3.1059280527e-16 4.5236184698e+00 -3.1059280527e-16
     1      1      1
 1  1  1     0.0000000000e+00
 1  1  2     6.2564423792e-02
 1  1  3     0.0000000000e+00
 1  2  1     3.1572983867e-02
 1  2  2     0.0000000000e+00
 1  2  3     0.0000000000e+00
 1  3  1     0.0000000000e+00
 1  3  2     0.0000000000e+00
 1  3  3     0.0000000000e+00
 2  1  1     3.1572983867e-02
 2  1  2     0.0000000000e+00
 2  1  3     0.0000000000e+00
 2  2  1     0.0000000000e+00
 2  2  2    -7.3919218773e-02
 2  2  3     0.0000000000e+00
 2  3  1     0.0000000000e+00
 2  3  2     0.0000000000e+00
 2  3  3     3.1572983867e-02
 3  1  1     0.0000000000e+00
 3  1  2     0.0000000000e+00
 3  1  3     0.0000000000e+00
 3  2  1     0.0000000000e+00
 3  2  2     0.0000000000e+00
 3  2  3     3.1572983867e-02
 3  3  1     0.0000000000e+00
 3  3  2     6.2564423792e-02
 3  3  3     0.0000000000e+00

   18
0.0000000000e+00 0.0000000000e+00 0.0000000000e+00
-2.2618092349e+00 -3.1059280527e-16 -2.2618092349e+00
     1      1      1
 1  1  1     8.4846407635e-02
 1  1  2     0.0000000000e+00
 1  1  3     3.5693880173e-01
 1  2  1     0.0000000000e+00
 1  2  2    -1.7115834752e-01
 1  2  3     0.0000000000e+00
 1  3  1     3.6700408396e-01
 1  3  2     0.0000000000e+00
 1  3  3     3.6700408396e-01
 2  1  1     0.0000000000e+00
 2  1  2    -1.7115834752e-01
 2  1  3     0.0000000000e+00
 2  2  1    -1.6240028469e-01
 2  2  2     0.0000000000e+00
 2  2  3    -1.6240028469e-01
 2  3  1     0.0000000000e+00
 2  3  2    -1.7115834752e-01
 2  3  3     0.0000000000e+00
 3  1  1     3.6700408396e-01
 3  1  2     0.0000000000e+00
 3  1  3     3.6700408396e-01
 3  2  1     0.0000000000e+00
 3  2  2    -1.7115834752e-01
 3  2  3     0.0000000000e+00
 3  3  1     3.5693880173e-01
 3  3  2     0.0000000000e+00
 3  3  3     8.4846407635e-02

   19
0.0000000000e+00 0.0000000000e+00 0.0000000000e+00
-4.5236184698e+00 -3.1059280527e-16 -3.4362985438e-16
     1      1      1
 1  1  1     7.3919218773e-02
 1  1  2     0.0000000000e+00
 1  1  3     0.0000000000e+00
 1  2  1     0.0000000000e+00
 1  2  2    -3.1572983867e-02
 1  2  3     0.0000000000e+00
 1  3  1     0.0000000000e+00
 1  3  2     0.0000000000e+00
 1  3  3    -3.1572983867e-02
 2  1  1     0.0000000000e+00
 2  1  2    -3.1572983867e-02
 2  1  3     0.0000000000e+00
 2  2  1    -6.2564423792e-02
 2  2  2     0.0000000000e+00
 2  2  3     0.0000000000e+00
 2  3  1     0.0000000000e+00
 2  3  2     0.0000000000e+00
 2  3  3     0.0000000000e+00
 3  1  1     0.0000000000e+00
 3  1  2     0.0000000000e+00
 3  1  3    -3.1572983867e-02
 3  2  1     0.0000000000e+00
 3  2  2     0.0000000000e+00
 3  2  3     0.0000000000e+00
 3  3  1    -6.2564423792e-02
 3  3  2     0.0000000000e+00
 3  3  3     0.0000000000e+00

   20
0.0000000000e+00 0.0000000000e+00 0.0000000000e+00
3.1059280527e-16 -3.1059280527e-16 -4.5236184698e+00
     1      1      1
 1  1  1     0.0000000000e+00
 1  1  2     0.0000000000e+00
 1  1  3    -6.2564423792e-02
 1  2  1     0.0000000000e+00
 1  2  2     0.0000000000e+00
 1  2  3     0.0000000000e+00
 1  3  1    -3.1572983867e-02
 1  3  2     0.0000000000e+00
 1  3  3     0.0000000000e+00
 2  1  1     0.0000000000e+00
 2  1  2     0.0000000000e+00
 2  1  3     0.0000000000e+00
 2  2  1     0.0000000000e+00
 2  2  2     0.0000000000e+00
 2  2  3    -6.2564423792e-02
 2  3  1     0.0000000000e+00
 2  3  2    -3.1572983867e-02
 2  3  3     0.0000000000e+00
 3  1  1    -3.1572983867e-02
 3  1  2     0.0000000000e+00
 3  1  3     0.0000000000e+00
 3  2  1     0.0000000000e+00
 3  2  2    -3.1572983867e-02
 3  2  3     0.0000000000e+00
 3  3  1     0.0000000000e+00
 3  3  2     0.0000000000e+00
 3  3  3     7.3919218773e-02

   21
0.0000000000e+00 0.0000000000e+00 0.0000000000e+00
-6.2118561053e-16 6.2118561053e-16 -4.5236184698e+00
     1      1      2
 1  1  1     3.9487643272e-02
 1  1  2     5.9997077627e-02
 1  1  3    -5.9997077627e-02
 1  2  1     4.7436361729e-02
 1  2  2    -4.7436361729e-02
 1  2  3     1.0472554958e-01
 1  3  1    -4.7436361729e-02
 1  3  2     1.0472554958e-01
 1  3  3    -4.7436361729e-02
 2  1  1     4.7436361729e-02
 2  1  2    -4.7436361729e-02
 2  1  3     1.0472554958e-01
 2  2  1    -5.9997077627e-02
 2  2  2    -3.9487643272e-02
 2  2  3    -5.9997077627e-02
 2  3  1     1.0472554958e-01
 2  3  2    -4.7436361729e-02
 2  3  3     4.7436361729e-02
 3  1  1    -4.7436361729e-02
 3  1  2     1.0472554958e-01
 3  1  3    -4.7436361729e-02
 3  2  1     1.0472554958e-01
 3  2  2    -4.7436361729e-02
 3  2  3     4.7436361729e-02
 3  3  1    -5.9997077627e-02
 3  3  2     5.9997077627e-02
 3  3  3     3.9487643272e-02

   22
0.0000000000e+00 0.0000000000e+00 0.0000000000e+00
2.2618092349e+00 -2.2618092349e+00 0.0000000000e+00
     1      1      1
 1  1  1    -8.4846407635e-02
 1  1  2     3.5693880173e-01
 1  1  3     0.0000000000e+00
 1  2  1     3.6700408396e-01
 1  2  2    -3.6700408396e-01
 1  2  3     0.0000000000e+00
 1  3  1     0.0000000000e+00
 1  3  2     0.0000000000e+00
 1  3  3     1.7115834752e-01
 2  1  1     3.6700408396e-01
 2  1  2    -3.6700408396e-01
 2  1  3     0.0000000000e+00
 2  2  1    -3.5693880173e-01
 2  2  2     8.4846407635e-02
 2  2  3     0.0000000000e+00
 2  3  1     0.0000000000e+00
 2  3  2     0.0000000000e+00
 2  3  3    -1.7115834752e-01
 3  1  1     0.0000000000e+00
 3  1  2     0.0000000000e+00
 3  1  3     1.7115834752e-01
 3  2  1     0.0000000000e+00
 3  2  2     0.0000000000e+00
 3  2  3    -1.7115834752e-01
 3  3  1     1.6240028469e-01
 3  3  2    -1.6240028469e-01
 3  3  3     0.0000000000e+00

   23
0.0000000000e+00 0.0000000000e+00 0.0000000000e+00
2.2618092349e+00 -2.2618092349e+00 0.0000000000e+00
     1      1      2
 1  1  1     0.0000000000e+00
 1  1  2     0.0000000000e+00
 1  1  3     4.9398568182e-01
 1  2  1     0.0000000000e+00
 1  2  2     0.0000000000e+00
 1  2  3     0.0000000000e+00
 1  3  1     2.6305118324e-01
 1  3  2     0.0000000000e+00
 1  3  3     0.0000000000e+00
 2  1  1     0.0000000000e+00
 2  1  2     0.0000000000e+00
 2  1  3     0.0000000000e+00
 2  2  1     0.0000000000e+00
 2  2  2     0.0000000000e+00
 2  2  3     4.9398568182e-01
 2  3  1     0.0000000000e+00
 2  3  2     2.6305118324e-01
 2  3  3     0.0000000000e+00
 3  1  1     2.6305118324e-01
 3  1  2     0.0000000000e+00
 3  1  3     0.0000000000e+00
 3  2  1     0.0000000000e+00
 3  2  2     2.6305118324e-01
 3  2  3     0.0000000000e+00
 3  3  1     0.0000000000e+00
 3  3  2     0.0000000000e+00
 3  3  3    -1.0776172021e+01

   24
0.0000000000e+00 0.0000000000e+00 0.0000000000e+00
3.4362985438e-16 -2.2618092349e+00 2.2618092349e+00
     1      1      1
 1  1  1     0.0000000000e+00
 1  1  2    -1.6240028469e-01
 1  1  3     1.6240028469e-01
 1  2  1    -1.7115834752e-01
 1  2  2     0.0000000000e+00
 1  2  3     0.0000000000e+00
 1  3  1     1.7115834752e-01
 1  3  2     0.0000000000e+00
 1  3  3     0.0000000000e+00
 2  1  1    -1.7115834752e-01
 2  1  2     0.0000000000e+00
 2  1  3     0.0000000000e+00
 2  2  1     0.0000000000e+00
 2  2  2     8.4846407635e-02
 2  2  3    -3.5693880173e-01
 2  3  1     0.0000000000e+00
 2  3  2    -3.6700408396e-01
 2  3  3     3.6700408396e-01
 3  1  1     1.7115834752e-01
 3  1  2     0.0000000000e+00
 3  1  3     0.0000000000e+00
 3  2  1     0.0000000000e+00
 3  2  2    -3.6700408396e-01
 3  2  3     3.6700408396e-01
 3  3  1     0.0000000000e+00
 3  3  2     3.5693880173e-01
 3  3  3    -8.4846407635e-02

   25
0.0000000000e+00 0.0000000000e+00 0.0000000000e+00
4.5236184698e+00 -2.2618092349e+00 -2.2618092349e+00
     1      1      2
 1  1  1    -1.0776172021e+01
 1  1  2     0.0000000000e+00
 1  1  3     0.0000000000e+00
 1  2  1     0.0000000000e+00
 1  2  2     2.6305118324e-01
 1  2  3     0.0000000000e+00
 1  3  1     0.0000000000e+00
 1  3  2     0.0000000000e+00
 1  3  3     2.6305118324e-01
 2  1  1     0.0000000000e+00
 2  1  2     2.6305118324e-01
 2  1  3     0.0000000000e+00
 2  2  1     4.9398568182e-01
 2  2  2     0.0000000000e+00
 2  2  3     0.0000000000e+00
 2  3  1     0.0000000000e+00
 2  3  2     0.0000000000e+00
 2  3  3     0.0000000000e+00
 3  1  1     0.0000000000e+00
 3  1  2     0.0000000000e+00
 3  1  3     2.6305118324e-01
 3  2  1     0.0000000000e+00
 3  2  2     0.0000000000e+00
 3  2  3     0.0000000000e+00
 3  3  1     4.9398568182e-01
 3  3  2     0.0000000000e+00
 3  3  3     0.0000000000e+00

   26
0.0000000000e+00 0.0000000000e+00 0.0000000000e+00
2.2618092349e+00 -3.4362985438e-16 2.2618092349e+00
     1      1      1
 1  1  1    -8.4846407635e-02
 1  1  2     0.0000000000e+00
 1  1  3    -3.5693880173e-01
 1  2  1     0.0000000000e+00
 1  2  2     1.7115834752e-01
 1  2  3     0.0000000000e+00
 1  3  1    -3.6700408396e-01
 1  3  2     0.0000000000e+00
 1  3  3    -3.6700408396e-01
 2  1  1     0.0000000000e+00
 2  1  2     1.7115834752e-01
 2  1  3     0.0000000000e+00
 2  2  1     1.6240028469e-01
 2  2  2     0.0000000000e+00
 2  2  3     1.6240028469e-01
 2  3  1     0.0000000000e+00
 2  3  2     1.7115834752e-01
 2  3  3     0.0000000000e+00
 3  1  1    -3.6700408396e-01
 3  1  2     0.0000000000e+00
 3  1  3    -3.6700408396e-01
 3  2  1     0.0000000000e+00
 3  2  2     1.7115834752e-01
 3  2  3     0.0000000000e+00
 3  3  1    -3.5693880173e-01
 3  3  2     0.0000000000e+00
 3  3  3    -8.4846407635e-02

   27
0.0000000000e+00 0.0000000000e+00 0.0000000000e+00
3.4362985438e-16 -3.4362985438e-16 4.5236184698e+00
     1      1      1
 1  1  1     0.0000000000e+00
 1  1  2     0.0000000000e+00
 1  1  3     6.2564423792e-02
 1  2  1     0.0000000000e+00
 1  2  2     0.0000000000e+00
 1  2  3     0.0000000000e+00
 1  3  1     3.1572983867e-02
 1  3  2     0.0000000000e+00
 1  3  3     0.0000000000e+00
 2  1  1     0.0000000000e+00
 2  1  2     0.0000000000e+00
 2  1  3     0.0000000000e+00
 2  2  1     0.0000000000e+00
 2  2  2     0.0000000000e+00
 2  2  3     6.2564423792e-02
 2  3  1     0.0000000000e+00
 2  3  2     3.1572983867e-02
 2  3  3     0.0000000000e+00
 3  1  1     3.1572983867e-02
 3  1  2     0.0000000000e+00
 3  1  3     0.0000000000e+00
 3  2  1     0.0000000000e+00
 3  2  2     3.1572983867e-02
 3  2  3     0.0000000000e+00
 3  3  1     0.0000000000e+00
 3  3  2     0.0000000000e+00
 3  3  3    -7.3919218773e-02

   28
0.0000000000e+00 0.0000000000e+00 0.0000000000e+00
4.5236184698e+00 -3.4362985438e-16 -3.1059280527e-16
     1      1      1
 1  1  1    -7.3919218773e-02
 1  1  2     0.0000000000e+00
 1  1  3     0.0000000000e+00
 1  2  1     0.0000000000e+00
 1  2  2     3.1572983867e-02
 1  2  3     0.0000000000e+00
 1  3  1     0.0000000000e+00
 1  3  2     0.0000000000e+00
 1  3  3     3.1572983867e-02
 2  1  1     0.0000000000e+00
 2  1  2     3.1572983867e-02
 2  1  3     0.0000000000e+00
 2  2  1     6.2564423792e-02
 2  2  2     0.0000000000e+00
 2  2  3     0.0000000000e+00
 2  3  1     0.0000000000e+00
 2  3  2     0.0000000000e+00
 2  3  3     0.0000000000e+00
 3  1  1     0.0000000000e+00
 3  1  2     0.0000000000e+00
 3  1  3     3.1572983867e-02
 3  2  1     0.0000000000e+00
 3  2  2     0.0000000000e+00
 3  2  3     0.0000000000e+00
 3  3  1     6.2564423792e-02
 3  3  2     0.0000000000e+00
 3  3  3     0.0000000000e+00

   29
0.0000000000e+00 0.0000000000e+00 0.0000000000e+00
4.5236184698e+00 6.8725970875e-16 6.2118561053e-16
     1      1      2
 1  1  1    -3.9487643272e-02
 1  1  2     5.9997077627e-02
 1  1  3     5.9997077627e-02
 1  2  1     4.7436361729e-02
 1  2  2     4.7436361729e-02
 1  2  3     1.0472554958e-01
 1  3  1     4.7436361729e-02
 1  3  2     1.0472554958e-01
 1  3  3     4.7436361729e-02
 2  1  1     4.7436361729e-02
 2  1  2     4.7436361729e-02
 2  1  3     1.0472554958e-01
 2  2  1     5.9997077627e-02
 2  2  2    -3.9487643272e-02
 2  2  3     5.9997077627e-02
 2  3  1     1.0472554958e-01
 2  3  2     4.7436361729e-02
 2  3  3     4.7436361729e-02
 3  1  1     4.7436361729e-02
 3  1  2     1.0472554958e-01
 3  1  3     4.7436361729e-02
 3  2  1     1.0472554958e-01
 3  2  2     4.7436361729e-02
 3  2  3     4.7436361729e-02
 3  3  1     5.9997077627e-02
 3  3  2     5.9997077627e-02
 3  3  3    -3.9487643272e-02

   30
0.0000000000e+00 0.0000000000e+00 0.0000000000e+00
2.2618092349e+00 -4.5236184698e+00 -2.2618092349e+00
     1      1      2
 1  1  1     0.0000000000e+00
 1  1  2    -4.9398568182e-01
 1  1  3     0.0000000000e+00
 1  2  1    -2.6305118324e-01
 1  2  2     0.0000000000e+00
 1  2  3     0.0000000000e+00
 1  3  1     0.0000000000e+00
 1  3  2     0.0000000000e+00
 1  3  3     0.0000000000e+00
 2  1  1    -2.6305118324e-01
 2  1  2     0.0000000000e+00
 2  1  3     0.0000000000e+00
 2  2  1     0.0000000000e+00
 2  2  2     1.0776172021e+01
 2  2  3     0.0000000000e+00
 2  3  1     0.0000000000e+00
 2  3  2     0.0000000000e+00
 2  3  3    -2.6305118324e-01
 3  1  1     0.0000000000e+00
 3  1  2     0.0000000000e+00
 3  1  3     0.0000000000e+00
 3  2  1     0.0000000000e+00
 3  2  2     0.0000000000e+00
 3  2  3    -2.6305118324e-01
 3  3  1     0.0000000000e+00
 3  3  2    -4.9398568182e-01
 3  3  3     0.0000000000e+00

   31
0.0000000000e+00 0.0000000000e+00 0.0000000000e+00
3.4362985438e-16 -4.5236184698e+00 -3.4362985438e-16
     1      1      1
 1  1  1     0.0000000000e+00
 1  1  2    -6.2564423792e-02
 1  1  3     0.0000000000e+00
 1  2  1    -3.1572983867e-02
 1  2  2     0.0000000000e+00
 1  2  3     0.0000000000e+00
 1  3  1     0.0000000000e+00
 1  3  2     0.0000000000e+00
 1  3  3     0.0000000000e+00
 2  1  1    -3.1572983867e-02
 2  1  2     0.0000000000e+00
 2  1  3     0.0000000000e+00
 2  2  1     0.0000000000e+00
 2  2  2     7.3919218773e-02
 2  2  3     0.0000000000e+00
 2  3  1     0.0000000000e+00
 2  3  2     0.0000000000e+00
 2  3  3    -3.1572983867e-02
 3  1  1     0.0000000000e+00
 3  1  2     0.0000000000e+00
 3  1  3     0.0000000000e+00
 3  2  1     0.0000000000e+00
 3  2  2     0.0000000000e+00
 3  2  3    -3.1572983867e-02
 3  3  1     0.0000000000e+00
 3  3  2    -6.2564423792e-02
 3  3  3     0.0000000000e+00

   32
0.0000000000e+00 0.0000000000e+00 0.0000000000e+00
-6.8725970875e-16 -4.5236184698e+00 6.8725970875e-16
     1      1      2
 1  1  1     3.9487643272e-02
 1  1  2    -5.9997077627e-02
 1  1  3     5.9997077627e-02
 1  2  1    -4.7436361729e-02
 1  2  2    -4.7436361729e-02
 1  2  3     1.0472554958e-01
 1  3  1     4.7436361729e-02
 1  3  2     1.0472554958e-01
 1  3  3    -4.7436361729e-02
 2  1  1    -4.7436361729e-02
 2  1  2    -4.7436361729e-02
 2  1  3     1.0472554958e-01
 2  2  1    -5.9997077627e-02
 2  2  2     3.9487643272e-02
 2  2  3     5.9997077627e-02
 2  3  1     1.0472554958e-01
 2  3  2     4.7436361729e-02
 2  3  3    -4.7436361729e-02
 3  1  1     4.7436361729e-02
 3  1  2     1.0472554958e-01
 3  1  3    -4.7436361729e-02
 3  2  1     1.0472554958e-01