 1468

    1
0.0000000000e+00 0.0000000000e+00 0.0000000000e+00
0.0000000000e+00 0.0000000000e+00 0.0000000000e+00
     1      1      1
 1  1  1     0.0000000000e+00
 1  1  2    -1.2163277121e+02
 1  1  3     0.0000000000e+00
 1  2  1    -1.2163277121e+02
 1  2  2     0.0000000000e+00
 1  2  3     0.0000000000e+00
 1  3  1     0.0000000000e+00
 1  3  2     0.0000000000e+00
 1  3  3     0.0000000000e+00
 2  1  1    -1.2163277121e+02
 2  1  2     0.0000000000e+00
 2  1  3     0.0000000000e+00
 2  2  1     0.0000000000e+00
 2  2  2     1.2163277121e+02
 2  2  3     0.0000000000e+00
 2  3  1     0.0000000000e+00
 2  3  2     0.0000000000e+00
 2  3  3     0.0000000000e+00
 3  1  1     0.0000000000e+00
 3  1  2     0.0000000000e+00
 3  1  3     0.0000000000e+00
 3  2  1     0.0000000000e+00
 3  2  2     0.0000000000e+00
 3  2  3     0.0000000000e+00
 3  3  1     0.0000000000e+00
 3  3  2     0.0000000000e+00
 3  3  3     0.0000000000e+00

    2
0.0000000000e+00 0.0000000000e+00 0.0000000000e+00
0.0000000000e+00 0.0000000000e+00 0.0000000000e+00
     1      1      2
 1  1  1     0.0000000000e+00
 1  1  2     1.3498286379e-02
 1  1  3     9.7161294515e-02
 1  2  1     1.3498286379e-02
 1  2  2     0.0000000000e+00
 1  2  3     0.0000000000e+00
 1  3  1     4.9118877279e-02
 1  3  2     0.0000000000e+00
 1  3  3     0.0000000000e+00
 2  1  1     1.3498286379e-02
 2  1  2     0.0000000000e+00
 2  1  3     0.0000000000e+00
 2  2  1     0.0000000000e+00
 2  2  2    -1.3498286379e-02
 2  2  3     9.7161294515e-02
 2  3  1     0.0000000000e+00
 2  3  2     4.9118877279e-02
 2  3  3     0.0000000000e+00
 3  1  1     4.9118877279e-02
 3  1  2     0.0000000000e+00
 3  1  3     0.0000000000e+00
 3  2  1     0.0000000000e+00
 3  2  2     4.9118877279e-02
 3  2  3     0.0000000000e+00
 3  3  1     0.0000000000e+00
 3  3  2     0.0000000000e+00
 3  3  3     9.6416372313e-02

    3
0.0000000000e+00 0.0000000000e+00 0.0000000000e+00
0.0000000000e+00 0.0000000000e+00 0.0000000000e+00
     1      1      3
 1  1  1     0.0000000000e+00
 1  1  2     3.2118158343e+00
 1  1  3     0.0000000000e+00
 1  2  1     7.0518759669e+00
 1  2  2     0.0000000000e+00
 1  2  3     0.0000000000e+00
 1  3  1     0.0000000000e+00
 1  3  2     0.0000000000e+00
 1  3  3     0.0000000000e+00
 2  1  1     7.0518759669e+00
 2  1  2     0.0000000000e+00
 2  1  3     0.0000000000e+00
 2  2  1     0.0000000000e+00
 2  2  2    -1.4544584065e+02
 2  2  3     0.0000000000e+00
 2  3  1     0.0000000000e+00
 2  3  2     0.0000000000e+00
 2  3  3     8.7986019042e+00
 3  1  1     0.0000000000e+00
 3  1  2     0.0000000000e+00
 3  1  3     0.0000000000e+00
 3  2  1     0.0000000000e+00
 3  2  2     0.0000000000e+00
 3  2  3     8.7986019042e+00
 3  3  1     0.0000000000e+00
 3  3  2     6.6882023031e+00
 3  3  3     0.0000000000e+00

    4
0.0000000000e+00 0.0000000000e+00 0.0000000000e+00
0.0000000000e+00 0.0000000000e+00 0.0000000000e+00
     1      1      4
 1  1  1    -1.5257865963e-04
 1  1  2    -4.6498849654e-03
 1  1  3     4.3558030998e-02
 1  2  1    -6.6422065399e-03
 1  2  2    -1.2011269505e-03
 1  2  3     8.1315162936e-17
 1  3  1    -3.8103003753e-02
 1  3  2    -1.6268772398e-02
 1  3  3    -3.3727614664e-02
 2  1  1    -6.6422065399e-03
 2  1  2    -1.2011269505e-03
 2  1  3     8.1315162936e-17
 2  2  1     2.2496752415e-03
 2  2  2     5.8606442415e-03
 2  2  3     4.3558030998e-02
 2  3  1    -1.6268772398e-02
 2  3  2    -1.9317443507e-02
 2  3  3    -1.9472647406e-02
 3  1  1    -3.8103003753e-02
 3  1  2    -1.6268772398e-02
 3  1  3    -3.3727614664e-02
 3  2  1    -1.6268772398e-02
 3  2  2    -1.9317443507e-02
 3  2  3    -1.9472647406e-02
 3  3  1    -1.7059505054e-01
 3  3  2    -9.8493098350e-02
 3  3  3    -1.2945879023e-01

    5
0.0000000000e+00 0.0000000000e+00 0.0000000000e+00
2.5465584475e+00 0.0000000000e+00 0.0000000000e+00
     1      1      1
 1  1  1    -9.3388898222e+00
 1  1  2    -9.5206762812e-01
 1  1  3     0.0000000000e+00
 1  2  1     1.8205399723e+00
 1  2  2     1.9183996804e+00
 1  2  3     0.0000000000e+00
 1  3  1     0.0000000000e+00
 1  3  2     0.0000000000e+00
 1  3  3     1.8617264019e+00
 2  1  1     1.8205399723e+00
 2  1  2     1.9183996804e+00
 2  1  3     0.0000000000e+00
 2  2  1     2.0089441523e+00
 2  2  2     1.1472034522e+00
 2  2  3     0.0000000000e+00
 2  3  1     0.0000000000e+00
 2  3  2     0.0000000000e+00
 2  3  3     7.7979190294e-01
 3  1  1     0.0000000000e+00
 3  1  2     0.0000000000e+00
 3  1  3     1.8617264019e+00
 3  2  1     0.0000000000e+00
 3  2  2     0.0000000000e+00
 3  2  3     7.7979190294e-01
 3  3  1    -3.8934803713e-01
 3  3  2     6.8435623478e-01
 3  3  3     0.0000000000e+00

    6
0.0000000000e+00 0.0000000000e+00 0.0000000000e+00
2.5465584475e+00 0.0000000000e+00 0.0000000000e+00
     1      1      3
 1  1  1    -1.4926938493e+00
 1  1  2     1.1296156271e+00
 1  1  3     0.0000000000e+00
 1  2  1    -4.4488457264e-01
 1  2  2    -1.4066027306e+00
 1  2  3     0.0000000000e+00
 1  3  1     0.0000000000e+00
 1  3  2     0.0000000000e+00
 1  3  3     4.4583805954e-03
 2  1  1    -4.4488457264e-01
 2  1  2    -1.4066027306e+00
 2  1  3     0.0000000000e+00
 2  2  1     1.3205116119e+00
 2  2  2    -1.2290250882e+00
 2  2  3     0.0000000000e+00
 2  3  1     0.0000000000e+00
 2  3  2     0.0000000000e+00
 2  3  3     2.5740472369e-03
 3  1  1     0.0000000000e+00
 3  1  2     0.0000000000e+00
 3  1  3     4.4583805954e-03
 3  2  1     0.0000000000e+00
 3  2  2     0.0000000000e+00
 3  2  3     2.5740472369e-03
 3  3  1    -5.2016868794e-02
 3  3  2    -3.0031953201e-02
 3  3  3     0.0000000000e+00

    7
0.0000000000e+00 0.0000000000e+00 0.0000000000e+00
-2.5465584475e+00 0.0000000000e+00 0.0000000000e+00
     1      1      1
 1  1  1     9.3388898222e+00
 1  1  2    -9.5206762812e-01
 1  1  3     0.0000000000e+00
 1  2  1     1.8205399723e+00
 1  2  2    -1.9183996804e+00
 1  2  3     0.0000000000e+00
 1  3  1     0.0000000000e+00
 1  3  2     0.0000000000e+00
 1  3  3    -1.8617264019e+00
 2  1  1     1.8205399723e+00
 2  1  2    -1.9183996804e+00
 2  1  3     0.0000000000e+00
 2  2  1    -2.0089441523e+00
 2  2  2     1.1472034522e+00
 2  2  3     0.0000000000e+00
 2  3  1     0.0000000000e+00
 2  3  2     0.0000000000e+00
 2  3  3     7.7979190294e-01
 3  1  1     0.0000000000e+00
 3  1  2     0.0000000000e+00
 3  1  3    -1.8617264019e+00
 3  2  1     0.0000000000e+00
 3  2  2     0.0000000000e+00
 3  2  3     7.7979190294e-01
 3  3  1     3.8934803713e-01
 3  3  2     6.8435623478e-01
 3  3  3     0.0000000000e+00

    8
0.0000000000e+00 0.0000000000e+00 0.0000000000e+00
-2.5465584475e+00 0.0000000000e+00 0.0000000000e+00
     1      1      3
 1  1  1     1.4926938493e+00
 1  1  2     1.1296156271e+00
 1  1  3     0.0000000000e+00
 1  2  1    -4.4488457264e-01
 1  2  2     1.4066027306e+00
 1  2  3     0.0000000000e+00
 1  3  1     0.0000000000e+00
 1  3  2     0.0000000000e+00
 1  3  3    -4.4583805954e-03
 2  1  1    -4.4488457264e-01
 2  1  2     1.4066027306e+00
 2  1  3     0.0000000000e+00
 2  2  1    -1.3205116119e+00
 2  2  2    -1.2290250882e+00
 2  2  3     0.0000000000e+00
 2  3  1     0.0000000000e+00
 2  3  2     0.0000000000e+00
 2  3  3     2.5740472369e-03
 3  1  1     0.0000000000e+00
 3  1  2     0.0000000000e+00
 3  1  3    -4.4583805954e-03
 3  2  1     0.0000000000e+00
 3  2  2     0.0000000000e+00
 3  2  3     2.5740472369e-03
 3  3  1     5.2016868794e-02
 3  3  2    -3.0031953201e-02
 3  3  3     0.0000000000e+00

    9
0.0000000000e+00 0.0000000000e+00 0.0000000000e+00
-2.5465584475e+00 0.0000000000e+00 0.0000000000e+00
     1      1      4
 1  1  1     1.5257865963e-04
 1  1  2    -4.6498849654e-03
 1  1  3     4.3558030998e-02
 1  2  1    -6.6422065399e-03
 1  2  2     1.2011269505e-03
 1  2  3    -8.1315162936e-17
 1  3  1    -3.8103003753e-02
 1  3  2     1.6268772398e-02
 1  3  3     3.3727614664e-02
 2  1  1    -6.6422065399e-03
 2  1  2     1.2011269505e-03
 2  1  3    -8.1315162936e-17
 2  2  1    -2.2496752415e-03
 2  2  2     5.8606442415e-03
 2  2  3     4.3558030998e-02
 2  3  1     1.6268772398e-02
 2  3  2    -1.9317443507e-02
 2  3  3    -1.9472647406e-02
 3  1  1    -3.8103003753e-02
 3  1  2     1.6268772398e-02
 3  1  3     3.3727614664e-02
 3  2  1     1.6268772398e-02
 3  2  2    -1.9317443507e-02
 3  2  3    -1.9472647406e-02
 3  3  1     1.7059505054e-01
 3  3  2    -9.8493098350e-02
 3  3  3    -1.2945879023e-01

   10
0.0000000000e+00 0.0000000000e+00 0.0000000000e+00
-1.2732792237e+00 2.2053843077e+00 0.0000000000e+00
     1      1      1
 1  1  1    -2.3521113336e+00
 1  1  2    -4.9356074504e-01
 1  1  3     0.0000000000e+00
 1  2  1    -1.9582783581e+00
 1  2  2     3.4922152070e+00
 1  2  3     0.0000000000e+00
 1  3  1     0.0000000000e+00
 1  3  2     0.0000000000e+00
 1  3  3    -1.6061827986e+00
 2  1  1    -1.9582783581e+00
 2  1  2     3.4922152070e+00
 2  1  3     0.0000000000e+00
 2  2  1     5.8480915877e+00
 2  2  2    -5.9519263255e+00
 2  2  3     0.0000000000e+00
 2  3  1     0.0000000000e+00
 2  3  2     0.0000000000e+00
 2  3  3     1.2224064075e+00
 3  1  1     0.0000000000e+00
 3  1  2     0.0000000000e+00
 3  1  3    -1.6061827986e+00
 3  2  1     0.0000000000e+00
 3  2  2     0.0000000000e+00
 3  2  3     1.2224064075e+00
 3  3  1    -3.9799586600e-01
 3  3  2    -6.7936340846e-01
 3  3  3     0.0000000000e+00

   11
0.0000000000e+00 0.0000000000e+00 0.0000000000e+00
-1.2732792237e+00 2.2053843077e+00 0.0000000000e+00
     1      1      3
 1  1  1     3.9854453885e-02
 1  1  2    -7.0541753933e-01
 1  1  3     0.0000000000e+00
 1  2  1    -4.1735876280e-01
 1  2  2     6.2584057787e-02
 1  2  3     0.0000000000e+00
 1  3  1     0.0000000000e+00
 1  3  2     0.0000000000e+00
 1  3  3    -1.3296536911e-01
 2  1  1    -4.1735876280e-01
 2  1  2     6.2584057787e-02
 2  1  3     0.0000000000e+00
 2  2  1     4.1954945918e-01
 2  2  2     1.0225854770e+00
 2  2  3     0.0000000000e+00
 2  3  1     0.0000000000e+00
 2  3  2     0.0000000000e+00
 2  3  3    -8.0805700656e-02
 3  1  1     0.0000000000e+00
 3  1  2     0.0000000000e+00
 3  1  3    -1.3296536911e-01
 3  2  1     0.0000000000e+00
 3  2  2     0.0000000000e+00
 3  2  3    -8.0805700656e-02
 3  3  1     1.7392501068e-01
 3  3  2    -1.5203681381e-01
 3  3  3     0.0000000000e+00

   12
0.0000000000e+00 0.0000000000e+00 0.0000000000e+00
1.2732792237e+00 2.2053843077e+00 0.0000000000e+00
     1      1      1
 1  1  1     2.3521113336e+00
 1  1  2    -4.9356074504e-01
 1  1  3     0.0000000000e+00
 1  2  1    -1.9582783581e+00
 1  2  2    -3.4922152070e+00
 1  2  3     0.0000000000e+00
 1  3  1     0.0000000000e+00
 1  3  2     0.0000000000e+00
 1  3  3     1.6061827986e+00
 2  1  1    -1.9582783581e+00
 2  1  2    -3.4922152070e+00
 2  1  3     0.0000000000e+00
 2  2  1    -5.8480915877e+00
 2  2  2    -5.9519263255e+00
 2  2  3     0.0000000000e+00
 2  3  1     0.0000000000e+00
 2  3  2     0.0000000000e+00
 2  3  3     1.2224064075e+00
 3  1  1     0.0000000000e+00
 3  1  2     0.0000000000e+00
 3  1  3     1.6061827986e+00
 3  2  1     0.0000000000e+00
 3  2  2     0.0000000000e+00
 3  2  3     1.2224064075e+00
 3  3  1     3.9799586600e-01
 3  3  2    -6.7936340846e-01
 3  3  3     0.0000000000e+00

   13
0.0000000000e+00 0.0000000000e+00 0.0000000000e+00
1.2732792237e+00 2.2053843077e+00 0.0000000000e+00
     1      1      3
 1  1  1    -3.9854453885e-02
 1  1  2    -7.0541753933e-01
 1  1  3     0.0000000000e+00
 1  2  1    -4.1735876280e-01
 1  2  2    -6.2584057787e-02
 1  2  3     0.0000000000e+00
 1  3  1     0.0000000000e+00
 1  3  2     0.0000000000e+00
 1  3  3     1.3296536911e-01
 2  1  1    -4.1735876280e-01
 2  1  2    -6.2584057787e-02
 2  1  3     0.0000000000e+00
 2  2  1    -4.1954945918e-01
 2  2  2     1.0225854770e+00
 2  2  3     0.0000000000e+00
 2  3  1     0.0000000000e+00
 2  3  2     0.0000000000e+00
 2  3  3    -8.0805700656e-02
 3  1  1     0.0000000000e+00
 3  1  2     0.0000000000e+00
 3  1  3     1.3296536911e-01
 3  2  1     0.0000000000e+00
 3  2  2     0.0000000000e+00
 3  2  3    -8.0805700656e-02
 3  3  1    -1.7392501068e-01
 3  3  2    -1.5203681381e-01
 3  3  3     0.0000000000e+00

   14
0.0000000000e+00 0.0000000000e+00 0.0000000000e+00
2.5465584475e+00 -4.4107686154e+00 0.0000000000e+00
     1      1      3
 1  1  1     5.3999062485e-01
 1  1  2    -3.5427701578e-01
 1  1  3     0.0000000000e+00
 1  2  1    -8.0744750993e-01
 1  2  2     3.5370340516e-02
 1  2  3     0.0000000000e+00
 1  3  1     0.0000000000e+00
 1  3  2     0.0000000000e+00
 1  3  3    -1.3646247409e-01
 2  1  1    -8.0744750993e-01
 2  1  2     3.5370340516e-02
 2  1  3     0.0000000000e+00
 2  2  1    -3.5613177050e-02
 2  2  2     5.9354850627e-01
 2  2  3     0.0000000000e+00
 2  3  1     0.0000000000e+00
 2  3  2     0.0000000000e+00
 2  3  3    -7.4748537142e-02
 3  1  1     0.0000000000e+00
 3  1  2     0.0000000000e+00
 3  1  3    -1.3646247409e-01
 3  2  1     0.0000000000e+00
 3  2  2     0.0000000000e+00
 3  2  3    -7.4748537142e-02
 3  3  1    -4.4705237724e-02
 3  3  2     2.2664188451e-01
 3  3  3     0.0000000000e+00

   15
0.0000000000e+00 0.0000000000e+00 0.0000000000e+00
-2.5465584475e+00 -4.4107686154e+00 0.0000000000e+00
     1      1      3
 1  1  1    -5.3999062485e-01
 1  1  2    -3.5427701578e-01
 1  1  3     0.0000000000e+00
 1  2  1    -8.0744750993e-01
 1  2  2    -3.5370340516e-02
 1  2  3     0.0000000000e+00
 1  3  1     0.0000000000e+00
 1  3  2     0.0000000000e+00
 1  3  3     1.3646247409e-01
 2  1  1    -8.0744750993e-01
 2  1  2    -3.5370340516e-02
 2  1  3     0.0000000000e+00
 2  2  1     3.5613177050e-02
 2  2  2     5.9354850627e-01
 2  2  3     0.0000000000e+00
 2  3  1     0.0000000000e+00
 2  3  2     0.0000000000e+00
 2  3  3    -7.4748537142e-02
 3  1  1     0.0000000000e+00
 3  1  2     0.0000000000e+00
 3  1  3     1.3646247409e-01
 3  2  1     0.0000000000e+00
 3  2  2     0.0000000000e+00
 3  2  3    -7.4748537142e-02
 3  3  1     4.4705237724e-02
 3  3  2     2.2664188451e-01
 3  3  3     0.0000000000e+00

   16
0.0000000000e+00 0.0000000000e+00 0.0000000000e+00
0.0000000000e+00 -4.4107686154e+00 0.0000000000e+00
     1      1      3
 1  1  1     0.0000000000e+00
 1  1  2    -1.1575775767e+00
 1  1  3     0.0000000000e+00
 1  2  1     1.9914228229e+00
 1  2  2     0.0000000000e+00
 1  2  3     0.0000000000e+00
 1  3  1     0.0000000000e+00
 1  3  2     0.0000000000e+00
 1  3  3     0.0000000000e+00
 2  1  1     1.9914228229e+00
 2  1  2     0.0000000000e+00
 2  1  3     0.0000000000e+00
 2  2  1     0.0000000000e+00
 2  2  2     1.3563964989e+00
 2  2  3     0.0000000000e+00
 2  3  1     0.0000000000e+00
 2  3  2     0.0000000000e+00
 2  3  3    -5.1480944738e-03
 3  1  1     0.0000000000e+00
 3  1  2     0.0000000000e+00
 3  1  3     0.0000000000e+00
 3  2  1     0.0000000000e+00
 3  2  2     0.0000000000e+00
 3  2  3    -5.1480944738e-03
 3  3  1     0.0000000000e+00
 3  3  2     6.0063906401e-02
 3  3  3     0.0000000000e+00

   17
0.0000000000e+00 0.0000000000e+00 0.0000000000e+00
1.2732792237e+00 -2.2053843077e+00 0.0000000000e+00
     1      1      1
 1  1  1    -3.0252615438e-01
 1  1  2     2.6019850213e+00
 1  1  3     0.0000000000e+00
 1  2  1     1.2940950340e+00
 1  2  2    -5.9778601141e+00
 1  2  3     0.0000000000e+00
 1  3  1     0.0000000000e+00
 1  3  2     0.0000000000e+00
 1  3  3     2.5554360336e-01
 2  1  1     1.2940950340e+00
 2  1  2    -5.9778601141e+00
 2  1  3     0.0000000000e+00
 2  2  1    -3.5314392614e+00
 2  2  2     3.6483662251e+00
 2  2  3     0.0000000000e+00
 2  3  1     0.0000000000e+00
 2  3  2     0.0000000000e+00
 2  3  3    -2.0021983104e+00
 3  1  1     0.0000000000e+00
 3  1  2     0.0000000000e+00
 3  1  3     2.5554360336e-01
 3  2  1     0.0000000000e+00
 3  2  2     0.0000000000e+00
 3  2  3    -2.0021983104e+00
 3  3  1    -7.8734390313e-01
 3  3  2    -4.9928263237e-03
 3  3  3     0.0000000000e+00

   18
0.0000000000e+00 0.0000000000e+00 0.0000000000e+00
1.2732792237e+00 -2.2053843077e+00 0.0000000000e+00
     1      1      3
 1  1  1    -9.0720914266e+01
 1  1  2     5.9429620240e+01
 1  1  3     0.0000000000e+00
 1  2  1     5.7509590173e+01
 1  2  2    -2.9131774880e+01
 1  2  3     0.0000000000e+00
 1  3  1     0.0000000000e+00
 1  3  2     0.0000000000e+00
 1  3  3     7.6198127668e+00
 2  1  1     5.7509590173e+01
 2  1  2    -2.9131774880e+01
 2  1  3     0.0000000000e+00
 2  2  1    -3.2457364507e+01
 2  2  2     1.1687392168e+01
 2  2  3     0.0000000000e+00
 2  3  1     0.0000000000e+00
 2  3  2     0.0000000000e+00
 2  3  3    -4.3993009521e+00
 3  1  1     0.0000000000e+00
 3  1  2     0.0000000000e+00
 3  1  3     7.6198127668e+00
 3  2  1     0.0000000000e+00
 3  2  2     0.0000000000e+00
 3  2  3    -4.3993009521e+00
 3  3  1     5.7921531001e+00
 3  3  2    -3.3441011515e+00
 3  3  3     0.0000000000e+00

   19
0.0000000000e+00 0.0000000000e+00 0.0000000000e+00
3.8198376712e+00 -2.2053843077e+00 0.0000000000e+00
     1      1      3
 1  1  1     1.2148883031e-01
 1  1  2    -8.6234585132e-01
 1  1  3     0.0000000000e+00
 1  2  1    -6.9723413371e-01
 1  2  2     3.5143362338e-01
 1  2  3     0.0000000000e+00
 1  3  1     0.0000000000e+00
 1  3  2     0.0000000000e+00
 1  3  3    -3.4971049850e-03
 2  1  1    -6.9723413371e-01
 2  1  2     3.5143362338e-01
 2  1  3     0.0000000000e+00
 2  2  1    -7.6515295579e-02
 2  2  2     3.0590642318e-01
 2  2  3     0.0000000000e+00
 2  3  1     0.0000000000e+00
 2  3  2     0.0000000000e+00
 2  3  3     1.5555423780e-01
 3  1  1     0.0000000000e+00
 3  1  2     0.0000000000e+00
 3  1  3    -3.4971049850e-03
 3  2  1     0.0000000000e+00
 3  2  2     0.0000000000e+00
 3  2  3     1.5555423780e-01
 3  3  1    -2.1863024841e-01
 3  3  2    -7.4605070703e-02
 3  3  3     0.0000000000e+00

   20
0.0000000000e+00 0.0000000000e+00 0.0000000000e+00
-3.8198376712e+00 -2.2053843077e+00 0.0000000000e+00
     1      1      3
 1  1  1    -1.2148883031e-01
 1  1  2    -8.6234585132e-01
 1  1  3     0.0000000000e+00
 1  2  1    -6.9723413371e-01
 1  2  2    -3.5143362338e-01
 1  2  3     0.0000000000e+00
 1  3  1     0.0000000000e+00
 1  3  2     0.0000000000e+00
 1  3  3     3.4971049850e-03
 2  1  1    -6.9723413371e-01
 2  1  2    -3.5143362338e-01
 2  1  3     0.0000000000e+00
 2  2  1     7.6515295579e-02
 2  2  2     3.0590642318e-01
 2  2  3     0.0000000000e+00
 2  3  1     0.0000000000e+00
 2  3  2     0.0000000000e+00
 2  3  3     1.5555423780e-01
 3  1  1     0.0000000000e+00
 3  1  2     0.0000000000e+00
 3  1  3     3.4971049850e-03
 3  2  1     0.0000000000e+00
 3  2  2     0.0000000000e+00
 3  2  3     1.5555423780e-01
 3  3  1     2.1863024841e-01
 3  3  2    -7.4605070703e-02
 3  3  3     0.0000000000e+00

   21
0.0000000000e+00 0.0000000000e+00 0.0000000000e+00
-1.2732792237e+00 -2.2053843077e+00 0.0000000000e+00
     1      1      1
 1  1  1     3.0252615438e-01
 1  1  2     2.6019850213e+00
 1  1  3     0.0000000000e+00
 1  2  1     1.2940950340e+00
 1  2  2     5.9778601141e+00
 1  2  3     0.0000000000e+00
 1  3  1     0.0000000000e+00
 1  3  2     0.0000000000e+00
 1  3  3    -2.5554360336e-01
 2  1  1     1.2940950340e+00
 2  1  2     5.9778601141e+00
 2  1  3     0.0000000000e+00
 2  2  1     3.5314392614e+00
 2  2  2     3.6483662251e+00
 2  2  3     0.0000000000e+00
 2  3  1     0.0000000000e+00
 2  3  2     0.0000000000e+00
 2  3  3    -2.0021983104e+00
 3  1  1     0.0000000000e+00
 3  1  2     0.0000000000e+00
 3  1  3    -2.5554360336e-01
 3  2  1     0.0000000000e+00
 3  2  2     0.0000000000e+00
 3  2  3    -2.0021983104e+00
 3  3  1     7.8734390313e-01
 3  3  2    -4.9928263237e-03
 3  3  3     0.0000000000e+00

   22
0.0000000000e+00 0.0000000000e+00 0.0000000000e+00
-1.2732792237e+00 -2.2053843077e+00 0.0000000000e+00
     1      1      3
 1  1  1     9.0720914266e+01
 1  1  2     5.9429620240e+01
 1  1  3     0.0000000000e+00
 1  2  1     5.7509590173e+01
 1  2  2     2.9131774880e+01
 1  2  3     0.0000000000e+00
 1  3  1     0.0000000000e+00
 1  3  2     0.0000000000e+00
 1  3  3    -7.6198127668e+00
 2  1  1     5.7509590173e+01
 2  1  2     2.9131774880e+01
 2  1  3     0.0000000000e+00
 2  2  1     3.2457364507e+01
 2  2  2     1.1687392168e+01
 2  2  3     0.0000000000e+00
 2  3  1     0.0000000000e+00
 2  3  2     0.0000000000e+00
 2  3  3    -4.3993009521e+00
 3  1  1     0.0000000000e+00
 3  1  2     0.0000000000e+00
 3  1  3    -7.6198127668e+00
 3  2  1     0.0000000000e+00
 3  2  2     0.0000000000e+00
 3  2  3    -4.3993009521e+00
 3  3  1    -5.7921531001e+00
 3  3  2    -3.3441011515e+00
 3  3  3     0.0000000000e+00

   23
0.0000000000e+00 0.0000000000e+00 0.0000000000e+00
-1.2732792237e+00 -2.2053843077e+00 0.0000000000e+00
     1      1      4
 1  1  1     0.0000000000e+00
 1  1  2    -8.5464367842e-03
 1  1  3     4.3558030998e-02
 1  2  1    -4.5617936352e-03
 1  2  2     0.0000000000e+00
 1  2  3     0.0000000000e+00
 1  3  1    -9.9246633833e-03
 1  3  2     0.0000000000e+00
 1  3  3     0.0000000000e+00
 2  1  1    -4.5617936352e-03
 2  1  2     0.0000000000e+00
 2  1  3     0.0000000000e+00
 2  2  1     0.0000000000e+00
 2  2  2     6.1249182321e-03
 2  2  3     4.3558030998e-02
 2  3  1     0.0000000000e+00
 2  3  2    -4.7495783877e-02
 2  3  3     3.8945294811e-02
 3  1  1    -9.9246633833e-03
 3  1  2     0.0000000000e+00
 3  1  3     0.0000000000e+00
 3  2  1     0.0000000000e+00
 3  2  2    -4.7495783877e-02
 3  2  3     3.8945294811e-02
 3  3  1     0.0000000000e+00
 3  3  2     1.9698619670e-01
 3  3  3    -1.2945879023e-01

   24
0.0000000000e+00 0.0000000000e+00 0.0000000000e+00
0.0000000000e+00 0.0000000000e+00 -6.6531781108e+00
     1      1      2
 1  1  1     0.0000000000e+00
 1  1  2     1.3498286379e-02
 1  1  3    -9.7161294515e-02
 1  2  1     1.3498286379e-02
 1  2  2     0.0000000000e+00
 1  2  3     0.0000000000e+00
 1  3  1    -4.9118877279e-02
 1  3  2     0.0000000000e+00
 1  3  3     0.0000000000e+00
 2  1  1     1.3498286379e-02
 2  1  2     0.0000000000e+00
 2  1  3     0.0000000000e+00
 2  2  1     0.0000000000e+00
 2  2  2    -1.3498286379e-02
 2  2  3    -9.7161294515e-02
 2  3  1     0.0000000000e+00
 2  3  2    -4.9118877279e-02
 2  3  3     0.0000000000e+00
 3  1  1    -4.9118877279e-02
 3  1  2     0.0000000000e+00
 3  1  3     0.0000000000e+00
 3  2  1     0.0000000000e+00
 3  2  2    -4.9118877279e-02
 3  2  3     0.0000000000e+00
 3  3  1     0.0000000000e+00
 3  3  2     0.0000000000e+00
 3  3  3    -9.6416372313e-02

   25
0.0000000000e+00 0.0000000000e+00 0.0000000000e+00
0.0000000000e+00 0.0000000000e+00 -6.6531781108e+00
     1      1      4
 1  1  1    -1.5257865963e-04
 1  1  2    -4.6498849654e-03
 1  1  3    -4.3558030998e-02
 1  2  1    -6.6422065399e-03
 1  2  2    -1.2011269505e-03
 1  2  3    -8.1315162936e-17
 1  3  1     3.8103003753e-02
 1  3  2     1.6268772398e-02
 1  3  3    -3.3727614664e-02
 2  1  1    -6.6422065399e-03
 2  1  2    -1.2011269505e-03
 2  1  3    -8.1315162936e-17
 2  2  1     2.2496752415e-03
 2  2  2     5.8606442415e-03
 2  2  3    -4.3558030998e-02
 2  3  1     1.6268772398e-02
 2  3  2     1.9317443507e-02
 2  3  3    -1.9472647406e-02
 3  1  1     3.8103003753e-02
 3  1  2     1.6268772398e-02
 3  1  3    -3.3727614664e-02
 3  2  1     1.6268772398e-02
 3  2  2     1.9317443507e-02
 3  2  3    -1.9472647406e-02
 3  3  1    -1.7059505054e-01
 3  3  2    -9.8493098350e-02
 3  3  3     1.2945879023e-01

   26
0.0000000000e+00 0.0000000000e+00 0.0000000000e+00
-2.5465584475e+00 0.0000000000e+00 -6.6531781108e+00
     1      1      4
 1  1  1     1.5257865963e-04
 1  1  2    -4.6498849654e-03
 1  1  3    -4.3558030998e-02
 1  2  1    -6.6422065399e-03
 1  2  2     1.2011269505e-03
 1  2  3     8.1315162936e-17
 1  3  1     3.8103003753e-02
 1  3  2    -1.6268772398e-02
 1  3  3     3.3727614664e-02
 2  1  1    -6.6422065399e-03
 2  1  2     1.2011269505e-03
 2  1  3     8.1315162936e-17
 2  2  1    -2.2496752415e-03
 2  2  2     5.8606442415e-03
 2  2  3    -4.3558030998e-02
 2  3  1    -1.6268772398e-02
 2  3  2     1.9317443507e-02
 2  3  3    -1.9472647406e-02
 3  1  1     3.8103003753e-02
 3  1  2    -1.6268772398e-02
 3  1  3     3.3727614664e-02
 3  2  1    -1.6268772398e-02
 3  2  2     1.9317443507e-02
 3  2  3    -1.9472647406e-02
 3  3  1     1.7059505054e-01
 3  3  2    -9.8493098350e-02
 3  3  3     1.2945879023e-01

   27
0.0000000000e+00 0.0000000000e+00 0.0000000000e+00
-1.2732792237e+00 -2.2053843077e+00 -6.6531781108e+00
     1      1      4
 1  1  1     0.0000000000e+00
 1  1  2    -8.5464367842e-03
 1  1  3    -4.3558030998e-02
 1  2  1    -4.5617936352e-03
 1  2  2     0.0000000000e+00
 1  2  3     0.0000000000e+00
 1  3  1     9.9246633833e-03
 1  3  2     0.0000000000e+00
 1  3  3     0.0000000000e+00
 2  1  1    -4.5617936352e-03
 2  1  2     0.0000000000e+00
 2  1  3     0.0000000000e+00
 2  2  1     0.0000000000e+00
 2  2  2     6.1249182321e-03
 2  2  3    -4.3558030998e-02
 2  3  1     0.0000000000e+00
 2  3  2     4.7495783877e-02
 2  3  3     3.8945294811e-02
 3  1  1     9.9246633833e-03
 3  1  2     0.0000000000e+00
 3  1  3     0.0000000000e+00
 3  2  1     0.0000000000e+00
 3  2  2     4.7495783877e-02
 3  2  3     3.8945294811e-02
 3  3  1     0.0000000000e+00
 3  3  2     1.9698619670e-01
 3  3  3     1.2945879023e-01

   28
0.0000000000e+00 0.0000000000e+00 0.0000000000e+00
0.0000000000e+00 0.0000000000e+00 0.0000000000e+00
     1      2      1
 1  1  1     0.0000000000e+00
 1  1  2     1.3498286379e-02
 1  1  3     4.9118877279e-02
 1  2  1     1.3498286379e-02
 1  2  2     0.0000000000e+00
 1  2  3     0.0000000000e+00
 1  3  1     9.7161294515e-02
 1  3  2     0.0000000000e+00
 1  3  3     0.0000000000e+00
 2  1  1     1.3498286379e-02
 2  1  2     0.0000000000e+00
 2  1  3     0.0000000000e+00
 2  2  1     0.0000000000e+00
 2  2  2    -1.3498286379e-02
 2  2  3     4.9118877279e-02
 2  3  1     0.0000000000e+00
 2  3  2     9.7161294515e-02
 2  3  3     0.0000000000e+00
 3  1  1     4.9118877279e-02
 3  1  2     0.0000000000e+00
 3  1  3     0.0000000000e+00
 3  2  1     0.0000000000e+00
 3  2  2     4.9118877279e-02
 3  2  3     0.0000000000e+00
 3  3  1     0.0000000000e+00
 3  3  2     0.0000000000e+00
 3  3  3     9.6416372313e-02

   29
0.0000000000e+00 0.0000000000e+00 0.0000000000e+00
0.0000000000e+00 0.0000000000e+00 0.0000000000e+00
     1      2      2
 1  1  1     0.0000000000e+00
 1  1  2    -1.3498286379e-02
 1  1  3    -4.9118877279e-02
 1  2  1    -1.3498286379e-02
 1  2  2     0.0000000000e+00
 1  2  3     0.0000000000e+00
 1  3  1    -4.9118877279e-02
 1  3  2     0.0000000000e+00
 1  3  3     0.0000000000e+00
 2  1  1    -1.3498286379e-02
 2  1  2     0.0000000000e+00
 2  1  3     0.0000000000e+00
 2  2  1     0.0000000000e+00
 2  2  2     1.3498286379e-02
 2  2  3    -4.9118877279e-02
 2  3  1     0.0000000000e+00
 2  3  2    -4.9118877279e-02
 2  3  3     0.0000000000e+00
 3  1  1    -9.7161294515e-02
 3  1  2     0.0000000000e+00
 3  1  3     0.0000000000e+00
 3  2  1     0.0000000000e+00
 3  2  2    -9.7161294515e-02
 3  2  3     0.0000000000e+00
 3  3  1     0.0000000000e+00
 3  3  2     0.0000000000e+00
 3  3  3    -9.6416372313e-02

   30
0.0000000000e+00 0.0000000000e+00 0.0000000000e+00
0.0000000000e+00 0.0000000000e+00 0.0000000000e+00
     1      2      3
 1  1  1     0.0000000000e+00
 1  1  2     1.5503354921e-02
 1  1  3    -1.7790015870e-02
 1  2  1    -9.9310591191e-03
 1  2  2     0.0000000000e+00
 1  2  3     0.0000000000e+00
 1  3  1     9.4749042266e-03
 1  3  2     0.0000000000e+00
 1  3  3     0.0000000000e+00
 2  1  1     4.9537340547e-03
 2  1  2     0.0000000000e+00
 2  1  3     0.0000000000e+00
 2  2  1     0.0000000000e+00
 2  2  2     7.4417569129e-03
 2  2  3    -5.7455565215e-03
 2  3  1     0.0000000000e+00
 2  3  2    -3.4088211340e-02
 2  3  3    -4.5025320424e-02
 3  1  1     6.1313924729e-03
 3  1  2     0.0000000000e+00
 3  1  3     0.0000000000e+00
 3  2  1     0.0000000000e+00
 3  2  2     1.2836854723e-03
 3  2  3     1.9262976678e-03
 3  3  1     0.0000000000e+00
 3  3  2     1.3799941941e-01
 3  3  3    -1.2545215550e-01

   31
0.0000000000e+00 0.0000000000e+00 0.0000000000e+00
0.0000000000e+00 0.0000000000e+00 0.0000000000e+00
     1      2      4
 1  1  1     7.1125152158e-03
 1  1  2     6.5950751067e-03
 1  1  3     8.7566713586e-03
 1  2  1     1.3202646734e-03
 1  2  2    -9.2683141640e-03
 1  2  3    -5.2154038853e-03
 1  3  1    -2.4956122225e-03
 1  3  2     2.0991187063e-03
 1  3  3     1.6682227156e-03
 2  1  1    -6.1221319135e-03
 2  1  2     3.6222948545e-03
 2  1  3    -5.2154038853e-03
 2  2  1     1.2758534525e-02
 2  2  2     4.8774808104e-03
 2  2  3     1.4778901033e-02
 2  3  1     2.0991187063e-03
 2  3  2    -4.9194657227e-03
 2  3  3     9.6314883392e-04
 3  1  1     2.3197432449e-02
 3  1  2     1.8863382375e-02
 3  1  3    -3.8993071300e-02
 3  2  1     1.8863382375e-02
 3  2  2     1.4158746651e-03
 3  2  3    -2.2512660212e-02
 3  3  1     1.1951100292e-01
 3  3  2     6.8999709706e-02
 3  3  3     1.2545215550e-01

   32
0.0000000000e+00 0.0000000000e+00 0.0000000000e+00
-2.5465584475e+00 0.0000000000e+00 0.0000000000e+00
     1      2      4
 1  1  1    -7.1125152158e-03
 1  1  2     6.5950751067e-03
 1  1  3     8.7566713586e-03
 1  2  1     1.3202646734e-03
 1  2  2     9.2683141640e-03
 1  2  3     5.2154038853e-03
 1  3  1    -2.4956122225e-03
 1  3  2    -2.0991187063e-03
 1  3  3    -1.6682227156e-03
 2  1  1    -6.1221319135e-03
 2  1  2    -3.6222948545e-03
 2  1  3     5.2154038853e-03
 2  2  1    -1.2758534525e-02
 2  2  2     4.8774808104e-03
 2  2  3     1.4778901033e-02
 2  3  1    -2.0991187063e-03
 2  3  2    -4.9194657227e-03
 2  3  3     9.6314883392e-04
 3  1  1     2.3197432449e-02
 3  1  2    -1.8863382375e-02
 3  1  3     3.8993071300e-02
 3  2  1    -1.8863382375e-02
 3  2  2     1.4158746651e-03