   0.33452E+01   0.32567E-02   0.32567E-02
   0.66905E+01   0.36119E-02   0.36119E-02
   0.10036E+02   0.39673E-02   0.39673E-02
   0.13381E+02   0.43667E-02   0.43667E-02
   0.16726E+02   0.44797E-02   0.44797E-02
   0.20071E+02   0.46232E-02   0.46232E-02
   0.23417E+02   0.45777E-02   0.45777E-02
   0.26762E+02   0.47704E-02   0.47704E-02
   0.30107E+02   0.51768E-02   0.51768E-02
   0.33452E+02   0.53879E-02   0.53879E-02
   0.36798E+02   0.55540E-02   0.55540E-02
   0.40143E+02   0.56532E-02   0.56532E-02
   0.43488E+02   0.58421E-02   0.58421E-02
   0.46833E+02   0.61691E-02   0.61691E-02
   0.50178E+02   0.65130E-02   0.65130E-02
   0.53524E+02   0.67520E-02   0.67520E-02
   0.56869E+02   0.69285E-02   0.69285E-02
   0.60214E+02   0.71898E-02   0.71898E-02
   0.63559E+02   0.76074E-02   0.76074E-02
   0.66905E+02   0.80524E-02   0.80524E-02
   0.70250E+02   0.82909E-02   0.82909E-02
   0.73595E+02   0.83813E-02   0.83813E-02
   0.76940E+02   0.91644E-02   0.91644E-02
   0.80286E+02   0.10382E-01   0.10382E-01
   0.83631E+02   0.11066E-01   0.11066E-01
   0.86976E+02   0.13403E-01   0.13403E-01
   0.90321E+02   0.33238E-01   0.33238E-01
   0.93666E+02   0.83031E-02   0.83031E-02
   0.97012E+02   0.67244E-02   0.67244E-02
   0.10036E+03   0.59558E-02   0.59558E-02
   0.10370E+03   0.58039E-02   0.58039E-02
   0.10705E+03   0.72858E-02   0.72858E-02
   0.11039E+03   0.92776E-02   0.92776E-02
   0.11374E+03   0.11706E-01   0.11706E-01
   0.11708E+03   0.17995E-01   0.17995E-01
   0.12043E+03   0.19221E-01   0.19221E-01
   0.12377E+03   0.17816E-01   0.17816E-01
   0.12712E+03   0.16111E-01   0.16111E-01
   0.13046E+03   0.14786E-01   0.14786E-01
   0.13381E+03   0.13749E-01   0.13749E-01
   0.13715E+03   0.14190E-01   0.14190E-01
   0.14050E+03   0.13237E-01   0.13237E-01
   0.14384E+03   0.13364E-01   0.13364E-01
   0.14719E+03   0.13312E-01   0.13312E-01
   0.15054E+03   0.13207E-01   0.13207E-01
   0.15388E+03   0.13959E-01   0.13959E-01
   0.15723E+03   0.14247E-01   0.14247E-01
   0.16057E+03   0.14584E-01   0.14584E-01
   0.16392E+03   0.14831E-01   0.14831E-01
   0.16726E+03   0.15913E-01   0.15913E-01
   0.17061E+03   0.47722E-02   0.47722E-02
   0.17395E+03   0.47072E-02   0.47072E-02
   0.17730E+03   0.48768E-02   0.48768E-02
   0.18064E+03   0.46925E-02   0.46925E-02
   0.18399E+03   0.48234E-02   0.48234E-02
   0.18733E+03   0.48085E-02   0.48085E-02
   0.19068E+03   0.35350E-02   0.35350E-02
   0.19402E+03   0.35647E-02   0.35647E-02
   0.19737E+03   0.38158E-02   0.38158E-02
   0.20071E+03   0.40986E-02   0.40986E-02
   0.20406E+03   0.42618E-02   0.42618E-02
   0.20740E+03   0.45062E-02   0.45062E-02
   0.21075E+03   0.48421E-02   0.48421E-02
   0.21409E+03   0.51643E-02   0.51643E-02
   0.21744E+03   0.54624E-02   0.54624E-02
   0.22079E+03   0.59321E-02   0.59321E-02
   0.22413E+03   0.65141E-02   0.65141E-02
   0.22748E+03   0.82392E-02   0.82392E-02
   0.23082E+03   0.53003E-02   0.53003E-02
   0.23417E+03   0.56777E-02   0.56777E-02
   0.23751E+03   0.60163E-02   0.60163E-02
   0.24086E+03   0.62912E-02   0.62912E-02
   0.24420E+03   0.59292E-02   0.59292E-02
   0.24755E+03   0.55197E-02   0.55197E-02
   0.25089E+03   0.62197E-02   0.62197E-02
   0.25424E+03   0.15314E-01   0.15314E-01
   0.25758E+03   0.17348E-01   0.17348E-01
   0.26093E+03   0.21217E-01   0.21217E-01
   0.26427E+03   0.52057E-01   0.52057E-01
   0.26762E+03   0.23085E-01   0.23085E-01
   0.27096E+03   0.18535E-01   0.18535E-01
   0.27431E+03   0.15943E-01   0.15943E-01
   0.27765E+03   0.15219E-01   0.15219E-01
   0.28100E+03   0.14601E-01   0.14601E-01
   0.28434E+03   0.14137E-01   0.14137E-01
   0.28769E+03   0.12299E-01   0.12299E-01
   0.29104E+03   0.12071E-01   0.12071E-01
   0.29438E+03   0.13093E-01   0.13093E-01
   0.29773E+03   0.12984E-01   0.12984E-01
   0.30107E+03   0.16896E-01   0.16896E-01
   0.30442E+03   0.00000E+00   0.00000E+00
   0.30776E+03   0.00000E+00   0.00000E+00
   0.31111E+03   0.00000E+00   0.00000E+00
   0.31445E+03   0.00000E+00   0.00000E+00
   0.31780E+03   0.00000E+00   0.00000E+00
   0.32114E+03   0.00000E+00   0.00000E+00
   0.32449E+03   0.00000E+00   0.00000E+00
   0.32783E+03   0.00000E+00   0.00000E+00
   0.33118E+03   0.00000E+00   0.00000E+00
   0.33452E+03   0.00000E+00   0.00000E+00
