   0.29443E+01   0.14489E-03   0.14489E-03   0.14479E-03   0.14479E-03
   0.58885E+01   0.39720E-03   0.39720E-03   0.39661E-03   0.39661E-03
   0.88328E+01   0.74954E-03   0.74954E-03   0.74787E-03   0.74787E-03
   0.11777E+02   0.12109E-02   0.12109E-02   0.12077E-02   0.12077E-02
   0.14721E+02   0.17167E-02   0.17167E-02   0.17113E-02   0.17113E-02
   0.17666E+02   0.25280E-02   0.25280E-02   0.25164E-02   0.25164E-02
   0.20610E+02   0.34349E-02   0.34349E-02   0.34135E-02   0.34135E-02
   0.23554E+02   0.48489E-02   0.48489E-02   0.48097E-02   0.48097E-02
   0.26498E+02   0.51001E-02   0.51001E-02   0.50632E-02   0.50632E-02
   0.29443E+02   0.53009E-02   0.53009E-02   0.52666E-02   0.52666E-02
   0.32387E+02   0.54753E-02   0.54753E-02   0.54437E-02   0.54437E-02
   0.35331E+02   0.56417E-02   0.56417E-02   0.56128E-02   0.56128E-02
   0.38275E+02   0.58381E-02   0.58381E-02   0.58116E-02   0.58116E-02
   0.41220E+02   0.60640E-02   0.60640E-02   0.60398E-02   0.60398E-02
   0.44164E+02   0.62451E-02   0.62451E-02   0.62234E-02   0.62234E-02
   0.47108E+02   0.64337E-02   0.64337E-02   0.64145E-02   0.64145E-02
   0.50053E+02   0.66665E-02   0.66665E-02   0.66496E-02   0.66496E-02
   0.52997E+02   0.68967E-02   0.68967E-02   0.68824E-02   0.68824E-02
   0.55941E+02   0.71530E-02   0.71530E-02   0.71412E-02   0.71412E-02
   0.58885E+02   0.74142E-02   0.74142E-02   0.74051E-02   0.74051E-02
   0.61830E+02   0.76793E-02   0.76793E-02   0.76731E-02   0.76731E-02
   0.64774E+02   0.80078E-02   0.80078E-02   0.80045E-02   0.80045E-02
   0.67718E+02   0.83391E-02   0.83391E-02   0.83390E-02   0.83390E-02
   0.70662E+02   0.87010E-02   0.87010E-02   0.87045E-02   0.87045E-02
   0.73607E+02   0.91210E-02   0.91210E-02   0.91284E-02   0.91284E-02
   0.76551E+02   0.95344E-02   0.95344E-02   0.95464E-02   0.95464E-02
   0.79495E+02   0.10078E-01   0.10078E-01   0.10095E-01   0.10095E-01
   0.82439E+02   0.10670E-01   0.10670E-01   0.10694E-01   0.10694E-01
   0.85384E+02   0.11384E-01   0.11384E-01   0.11416E-01   0.11416E-01
   0.88328E+02   0.12343E-01   0.12343E-01   0.12387E-01   0.12387E-01
   0.91272E+02   0.13747E-01   0.13747E-01   0.13810E-01   0.13810E-01
   0.94216E+02   0.17055E-01   0.17055E-01   0.17155E-01   0.17155E-01
   0.97161E+02   0.16398E-01   0.16398E-01   0.16575E-01   0.16575E-01
   0.10011E+03   0.10340E-01   0.10340E-01   0.10349E-01   0.10349E-01
   0.10305E+03   0.89951E-02   0.89951E-02   0.89821E-02   0.89821E-02
   0.10599E+03   0.80638E-02   0.80638E-02   0.80343E-02   0.80343E-02
   0.10894E+03   0.80189E-02   0.80189E-02   0.79632E-02   0.79632E-02
   0.11188E+03   0.10078E-01   0.10078E-01   0.99824E-02   0.99824E-02
   0.11483E+03   0.15748E-01   0.15748E-01   0.15571E-01   0.15571E-01
   0.11777E+03   0.14452E-01   0.14452E-01   0.14303E-01   0.14303E-01
   0.12071E+03   0.14533E-01   0.14533E-01   0.14393E-01   0.14393E-01
   0.12366E+03   0.16703E-01   0.16703E-01   0.16531E-01   0.16531E-01
   0.12660E+03   0.23786E-01   0.23786E-01   0.23508E-01   0.23508E-01
   0.12955E+03   0.18063E-01   0.18063E-01   0.17891E-01   0.17891E-01
   0.13249E+03   0.16411E-01   0.16411E-01   0.16276E-01   0.16276E-01
   0.13544E+03   0.15749E-01   0.15749E-01   0.15634E-01   0.15634E-01
   0.13838E+03   0.15376E-01   0.15376E-01   0.15277E-01   0.15277E-01
   0.14132E+03   0.15126E-01   0.15126E-01   0.15041E-01   0.15041E-01
   0.14427E+03   0.15055E-01   0.15055E-01   0.14982E-01   0.14982E-01
   0.14721E+03   0.15074E-01   0.15074E-01   0.15016E-01   0.15016E-01
   0.15016E+03   0.15285E-01   0.15285E-01   0.15240E-01   0.15240E-01
   0.15310E+03   0.15705E-01   0.15705E-01   0.15674E-01   0.15674E-01
   0.15605E+03   0.16250E-01   0.16250E-01   0.16239E-01   0.16239E-01
   0.15899E+03   0.17072E-01   0.17072E-01   0.17085E-01   0.17085E-01
   0.16193E+03   0.18266E-01   0.18266E-01   0.18310E-01   0.18310E-01
   0.16488E+03   0.19821E-01   0.19821E-01   0.19914E-01   0.19914E-01
   0.16782E+03   0.55619E-02   0.55619E-02   0.55347E-02   0.55347E-02
   0.17077E+03   0.55646E-02   0.55646E-02   0.55416E-02   0.55416E-02
   0.17371E+03   0.54851E-02   0.54851E-02   0.54700E-02   0.54700E-02
   0.17666E+03   0.56462E-02   0.56462E-02   0.56324E-02   0.56324E-02
   0.17960E+03   0.54805E-02   0.54805E-02   0.54817E-02   0.54817E-02
   0.18254E+03   0.51845E-02   0.51845E-02   0.52107E-02   0.52107E-02
   0.18549E+03   0.50906E-02   0.50906E-02   0.51385E-02   0.51385E-02
   0.18843E+03   0.54711E-02   0.54711E-02   0.55306E-02   0.55306E-02
   0.19138E+03   0.58911E-02   0.58911E-02   0.59662E-02   0.59662E-02
   0.19432E+03   0.65427E-02   0.65427E-02   0.66448E-02   0.66448E-02
   0.19727E+03   0.69347E-02   0.69347E-02   0.70791E-02   0.70791E-02
   0.20021E+03   0.75646E-02   0.75646E-02   0.78297E-02   0.78297E-02
   0.20315E+03   0.72745E-02   0.72745E-02   0.74830E-02   0.74830E-02
   0.20610E+03   0.70803E-02   0.70803E-02   0.72790E-02   0.72790E-02
   0.20904E+03   0.77309E-02   0.77309E-02   0.76909E-02   0.76909E-02
   0.21199E+03   0.21867E-01   0.21867E-01   0.22432E-01   0.22432E-01
   0.21493E+03   0.20555E-01   0.20555E-01   0.20947E-01   0.20947E-01
   0.21788E+03   0.20719E-01   0.20719E-01   0.21084E-01   0.21084E-01
   0.22082E+03   0.21759E-01   0.21759E-01   0.21869E-01   0.21869E-01
   0.22376E+03   0.29599E-01   0.29599E-01   0.29784E-01   0.29784E-01
   0.22671E+03   0.19731E-01   0.19731E-01   0.19649E-01   0.19649E-01
   0.22965E+03   0.18924E-01   0.18924E-01   0.18698E-01   0.18698E-01
   0.23260E+03   0.16997E-01   0.16997E-01   0.16827E-01   0.16827E-01
   0.23554E+03   0.15563E-01   0.15563E-01   0.15454E-01   0.15454E-01
   0.23849E+03   0.14597E-01   0.14597E-01   0.14519E-01   0.14519E-01
   0.24143E+03   0.13991E-01   0.13991E-01   0.13932E-01   0.13932E-01
   0.24437E+03   0.13553E-01   0.13553E-01   0.13507E-01   0.13507E-01
   0.24732E+03   0.13136E-01   0.13136E-01   0.13100E-01   0.13100E-01
   0.25026E+03   0.12932E-01   0.12932E-01   0.12903E-01   0.12903E-01
   0.25321E+03   0.12880E-01   0.12880E-01   0.12855E-01   0.12855E-01
   0.25615E+03   0.12981E-01   0.12981E-01   0.12958E-01   0.12958E-01
   0.25910E+03   0.13262E-01   0.13262E-01   0.13237E-01   0.13237E-01
   0.26204E+03   0.15249E-01   0.15249E-01   0.15217E-01   0.15217E-01
   0.26498E+03   0.22196E-01   0.22196E-01   0.22144E-01   0.22144E-01
   0.26793E+03   0.29744E-02   0.29744E-02   0.29702E-02   0.29702E-02
   0.27087E+03   0.00000E+00   0.00000E+00   0.00000E+00   0.00000E+00
   0.27382E+03   0.00000E+00   0.00000E+00   0.00000E+00   0.00000E+00
   0.27676E+03   0.00000E+00   0.00000E+00   0.00000E+00   0.00000E+00
   0.27971E+03   0.00000E+00   0.00000E+00   0.00000E+00   0.00000E+00
   0.28265E+03   0.00000E+00   0.00000E+00   0.00000E+00   0.00000E+00
   0.28559E+03   0.00000E+00   0.00000E+00   0.00000E+00   0.00000E+00
   0.28854E+03   0.00000E+00   0.00000E+00   0.00000E+00   0.00000E+00
   0.29148E+03   0.00000E+00   0.00000E+00   0.00000E+00   0.00000E+00
   0.29443E+03   0.00000E+00   0.00000E+00   0.00000E+00   0.00000E+00
