   0.71231E+00   0.50565E-02   0.42260E-02   0.42260E-02
   0.14246E+01   0.69604E-02   0.59116E-02   0.59116E-02
   0.21369E+01   0.69593E-02   0.59922E-02   0.59922E-02
   0.28492E+01   0.82702E-02   0.72122E-02   0.72122E-02
   0.35615E+01   0.84311E-02   0.74085E-02   0.74085E-02
   0.42738E+01   0.92375E-02   0.82240E-02   0.82240E-02
   0.49861E+01   0.10671E-01   0.95873E-02   0.95873E-02
   0.56984E+01   0.11525E-01   0.10463E-01   0.10463E-01
   0.64108E+01   0.12184E-01   0.11174E-01   0.11174E-01
   0.71231E+01   0.13276E-01   0.12248E-01   0.12248E-01
   0.78354E+01   0.13837E-01   0.12903E-01   0.12903E-01
   0.85477E+01   0.14926E-01   0.14036E-01   0.14036E-01
   0.92600E+01   0.16209E-01   0.15349E-01   0.15349E-01
   0.99723E+01   0.16976E-01   0.16263E-01   0.16263E-01
   0.10685E+02   0.18558E-01   0.17921E-01   0.17921E-01
   0.11397E+02   0.20259E-01   0.19713E-01   0.19713E-01
   0.12109E+02   0.21523E-01   0.21206E-01   0.21206E-01
   0.12822E+02   0.23169E-01   0.23057E-01   0.23057E-01
   0.13534E+02   0.23922E-01   0.24024E-01   0.24024E-01
   0.14246E+02   0.23478E-01   0.23920E-01   0.23920E-01
   0.14958E+02   0.25899E-01   0.26746E-01   0.26746E-01
   0.15671E+02   0.29143E-01   0.30375E-01   0.30375E-01
   0.16383E+02   0.32233E-01   0.33969E-01   0.33969E-01
   0.17095E+02   0.34314E-01   0.36599E-01   0.36599E-01
   0.17808E+02   0.38597E-01   0.41782E-01   0.41782E-01
   0.18520E+02   0.42312E-01   0.46386E-01   0.46386E-01
   0.19232E+02   0.58765E-01   0.65732E-01   0.65732E-01
   0.19945E+02   0.54000E-01   0.59837E-01   0.59837E-01
   0.20657E+02   0.51476E-01   0.56227E-01   0.56227E-01
   0.21369E+02   0.51922E-01   0.55653E-01   0.55653E-01
   0.22081E+02   0.55916E-01   0.58296E-01   0.58296E-01
   0.22794E+02   0.12062E+00   0.95907E-01   0.95907E-01
   0.23506E+02   0.99957E-01   0.84986E-01   0.84986E-01
   0.24218E+02   0.11598E+00   0.12989E+00   0.12989E+00
   0.24931E+02   0.43094E-01   0.43692E-01   0.43692E-01
   0.25643E+02   0.54867E-01   0.44004E-01   0.44004E-01
   0.26355E+02   0.50835E-01   0.47498E-01   0.47498E-01
   0.27068E+02   0.85588E-01   0.89420E-01   0.89420E-01
   0.27780E+02   0.59722E-01   0.59391E-01   0.59391E-01
   0.28492E+02   0.65493E-01   0.60204E-01   0.60204E-01
   0.29205E+02   0.00000E+00   0.00000E+00   0.00000E+00
   0.29917E+02   0.00000E+00   0.00000E+00   0.00000E+00
   0.30629E+02   0.00000E+00   0.00000E+00   0.00000E+00
   0.31341E+02   0.89942E-04   0.74774E-01   0.74774E-01
   0.32054E+02   0.27290E-03   0.10335E+00   0.10335E+00
   0.32766E+02   0.43416E-03   0.11259E+00   0.11259E+00
   0.33478E+02   0.83557E-03   0.20277E+00   0.20277E+00
   0.34191E+02   0.11912E-02   0.11607E+00   0.11607E+00
   0.34903E+02   0.13390E-02   0.98765E-01   0.98765E-01
   0.35615E+02   0.11569E-02   0.10260E+00   0.10260E+00
   0.36328E+02   0.93113E-03   0.49639E-01   0.49639E-01
   0.37040E+02   0.25867E-02   0.38034E+00   0.38034E+00
   0.37752E+02   0.56250E-03   0.61579E-01   0.61579E-01
   0.38465E+02   0.32335E-02   0.16591E+00   0.16591E+00
   0.39177E+02   0.98273E-02   0.28315E+00   0.28315E+00
   0.39889E+02   0.42609E-02   0.49098E-01   0.49098E-01
   0.40601E+02   0.35047E-02   0.36427E-01   0.36427E-01
   0.41314E+02   0.26901E-02   0.28574E-01   0.28574E-01
   0.42026E+02   0.21363E-02   0.25517E-01   0.25517E-01
   0.42738E+02   0.14803E-02   0.22558E-01   0.22558E-01
   0.43451E+02   0.95813E-03   0.23757E-01   0.23757E-01
   0.44163E+02   0.13061E-03   0.17641E-01   0.17641E-01
   0.44875E+02   0.00000E+00   0.00000E+00   0.00000E+00
   0.45588E+02   0.00000E+00   0.00000E+00   0.00000E+00
   0.46300E+02   0.00000E+00   0.00000E+00   0.00000E+00
   0.47012E+02   0.00000E+00   0.00000E+00   0.00000E+00
   0.47724E+02   0.00000E+00   0.00000E+00   0.00000E+00
   0.48437E+02   0.00000E+00   0.00000E+00   0.00000E+00
   0.49149E+02   0.00000E+00   0.00000E+00   0.00000E+00
   0.49861E+02   0.00000E+00   0.00000E+00   0.00000E+00
   0.50574E+02   0.10356E-02   0.53043E-03   0.53043E-03
   0.51286E+02   0.23866E+00   0.96112E-01   0.96112E-01
   0.51998E+02   0.27099E+00   0.81677E-01   0.81677E-01
   0.52711E+02   0.10924E+00   0.35512E-01   0.35512E-01
   0.53423E+02   0.43696E+00   0.11962E+00   0.11962E+00
   0.54135E+02   0.40787E+00   0.78704E-01   0.78704E-01
   0.54848E+02   0.26896E+00   0.47267E-01   0.47267E-01
   0.55560E+02   0.86048E-01   0.18582E-01   0.18582E-01
   0.56272E+02   0.62120E-01   0.13561E-01   0.13561E-01
   0.56984E+02   0.51195E-01   0.11371E-01   0.11371E-01
   0.57697E+02   0.44985E-01   0.10210E-01   0.10210E-01
   0.58409E+02   0.40465E-01   0.94139E-02   0.94139E-02
   0.59121E+02   0.37469E-01   0.89539E-02   0.89539E-02
   0.59834E+02   0.34886E-01   0.85785E-02   0.85785E-02
   0.60546E+02   0.32631E-01   0.82675E-02   0.82675E-02
   0.61258E+02   0.29882E-01   0.78105E-02   0.78105E-02
   0.61971E+02   0.29640E-01   0.79983E-02   0.79983E-02
   0.62683E+02   0.28651E-01   0.79701E-02   0.79701E-02
   0.63395E+02   0.28234E-01   0.81042E-02   0.81042E-02
   0.64108E+02   0.22454E-01   0.66431E-02   0.66431E-02
   0.64820E+02   0.00000E+00   0.00000E+00   0.00000E+00
   0.65532E+02   0.00000E+00   0.00000E+00   0.00000E+00
   0.66244E+02   0.00000E+00   0.00000E+00   0.00000E+00
   0.66957E+02   0.00000E+00   0.00000E+00   0.00000E+00
   0.67669E+02   0.00000E+00   0.00000E+00   0.00000E+00
   0.68381E+02   0.00000E+00   0.00000E+00   0.00000E+00
   0.69094E+02   0.00000E+00   0.00000E+00   0.00000E+00
   0.69806E+02   0.00000E+00   0.00000E+00   0.00000E+00
   0.70518E+02   0.00000E+00   0.00000E+00   0.00000E+00
   0.71231E+02   0.00000E+00   0.00000E+00   0.00000E+00
