 1824

    1
0.0000000000e+00 0.0000000000e+00 0.0000000000e+00
0.0000000000e+00 0.0000000000e+00 0.0000000000e+00
     1      1      1
 1  1  1     0.0000000000e+00
 1  1  2     2.0196219332e+01
 1  1  3     0.0000000000e+00
 1  2  1     2.0196219332e+01
 1  2  2     0.0000000000e+00
 1  2  3     0.0000000000e+00
 1  3  1     0.0000000000e+00
 1  3  2     0.0000000000e+00
 1  3  3     0.0000000000e+00
 2  1  1     2.0196219332e+01
 2  1  2     0.0000000000e+00
 2  1  3     0.0000000000e+00
 2  2  1     0.0000000000e+00
 2  2  2    -2.0196219342e+01
 2  2  3     0.0000000000e+00
 2  3  1     0.0000000000e+00
 2  3  2     0.0000000000e+00
 2  3  3     0.0000000000e+00
 3  1  1     0.0000000000e+00
 3  1  2     0.0000000000e+00
 3  1  3     0.0000000000e+00
 3  2  1     0.0000000000e+00
 3  2  2     0.0000000000e+00
 3  2  3     0.0000000000e+00
 3  3  1     0.0000000000e+00
 3  3  2     0.0000000000e+00
 3  3  3     0.0000000000e+00

    2
0.0000000000e+00 0.0000000000e+00 0.0000000000e+00
0.0000000000e+00 0.0000000000e+00 0.0000000000e+00
     1      1      3
 1  1  1     0.0000000000e+00
 1  1  2    -3.3285114893e-03
 1  1  3     1.8193659662e-02
 1  2  1    -3.3285114893e-03
 1  2  2     0.0000000000e+00
 1  2  3     0.0000000000e+00
 1  3  1    -2.0778941853e-02
 1  3  2     0.0000000000e+00
 1  3  3     0.0000000000e+00
 2  1  1    -3.3285114893e-03
 2  1  2     0.0000000000e+00
 2  1  3     0.0000000000e+00
 2  2  1     0.0000000000e+00
 2  2  2     3.3285114909e-03
 2  2  3     1.8193659671e-02
 2  3  1     0.0000000000e+00
 2  3  2    -2.0778941862e-02
 2  3  3     0.0000000000e+00
 3  1  1    -2.0778941853e-02
 3  1  2     0.0000000000e+00
 3  1  3     0.0000000000e+00
 3  2  1     0.0000000000e+00
 3  2  2    -2.0778941862e-02
 3  2  3     0.0000000000e+00
 3  3  1     0.0000000000e+00
 3  3  2     0.0000000000e+00
 3  3  3     9.9061392385e-02

    3
0.0000000000e+00 0.0000000000e+00 0.0000000000e+00
0.0000000000e+00 0.0000000000e+00 0.0000000000e+00
     1      1      4
 1  1  1     8.6419299533e+00
 1  1  2    -5.4056056139e+00
 1  1  3    -1.1067398899e+01
 1  2  1    -4.2913170216e+00
 1  2  2     2.2373085003e+00
 1  2  3     5.9247391195e+00
 1  3  1    -1.1511779270e+01
 1  3  2     6.6309810521e+00
 1  3  3     1.1634579486e+01
 2  1  1    -4.2913170216e+00
 2  1  2     2.2373085003e+00
 2  1  3     5.9247391195e+00
 2  2  1     4.1673129568e+00
 2  2  2    -1.9898142300e+00
 2  2  3    -4.2260994515e+00
 2  3  1     6.6309810521e+00
 2  3  2    -3.8549818828e+00
 2  3  3    -6.7172275996e+00
 3  1  1    -1.1511779270e+01
 3  1  2     6.6309810521e+00
 3  1  3     1.1634579486e+01
 3  2  1     6.6309810521e+00
 3  2  2    -3.8549818828e+00
 3  2  3    -6.7172275996e+00
 3  3  1     1.1334356509e+01
 3  3  2    -6.5438937830e+00
 3  3  3    -1.1950404423e+01

    4
0.0000000000e+00 0.0000000000e+00 0.0000000000e+00
0.0000000000e+00 0.0000000000e+00 0.0000000000e+00
     1      1      6
 1  1  1     8.6419299533e+00
 1  1  2    -5.4056056139e+00
 1  1  3     1.1067398899e+01
 1  2  1    -4.2913170216e+00
 1  2  2     2.2373085003e+00
 1  2  3    -5.9247391195e+00
 1  3  1     1.1511779270e+01
 1  3  2    -6.6309810521e+00
 1  3  3     1.1634579486e+01
 2  1  1    -4.2913170216e+00
 2  1  2     2.2373085003e+00
 2  1  3    -5.9247391195e+00
 2  2  1     4.1673129568e+00
 2  2  2    -1.9898142300e+00
 2  2  3     4.2260994515e+00
 2  3  1    -6.6309810521e+00
 2  3  2     3.8549818828e+00
 2  3  3    -6.7172275996e+00
 3  1  1     1.1511779270e+01
 3  1  2    -6.6309810521e+00
 3  1  3     1.1634579486e+01
 3  2  1    -6.6309810521e+00
 3  2  2     3.8549818828e+00
 3  2  3    -6.7172275996e+00
 3  3  1     1.1334356509e+01
 3  3  2    -6.5438937830e+00
 3  3  3     1.1950404423e+01

    5
0.0000000000e+00 0.0000000000e+00 0.0000000000e+00
-3.1426645240e+00 0.0000000000e+00 0.0000000000e+00
     1      1      1
 1  1  1     0.0000000000e+00
 1  1  2    -1.0162202977e+01
 1  1  3     0.0000000000e+00
 1  2  1     2.0736716638e+00
 1  2  2     0.0000000000e+00
 1  2  3     0.0000000000e+00
 1  3  1     0.0000000000e+00
 1  3  2     0.0000000000e+00
 1  3  3     0.0000000000e+00
 2  1  1     2.0736716638e+00
 2  1  2     0.0000000000e+00
 2  1  3     0.0000000000e+00
 2  2  1     0.0000000000e+00
 2  2  2     1.2439943334e+00
 2  2  3     0.0000000000e+00
 2  3  1     0.0000000000e+00
 2  3  2     0.0000000000e+00
 2  3  3     4.9765964516e+00
 3  1  1     0.0000000000e+00
 3  1  2     0.0000000000e+00
 3  1  3     0.0000000000e+00
 3  2  1     0.0000000000e+00
 3  2  2     0.0000000000e+00
 3  2  3     4.9765964516e+00
 3  3  1     0.0000000000e+00
 3  3  2     9.9192607519e-01
 3  3  3     0.0000000000e+00

    6
0.0000000000e+00 0.0000000000e+00 0.0000000000e+00
-3.1426645240e+00 0.0000000000e+00 0.0000000000e+00
     1      1      3
 1  1  1     0.0000000000e+00
 1  1  2    -2.8900712040e-02
 1  1  3     3.9636802995e-02
 1  2  1     1.2943637562e-03
 1  2  2     0.0000000000e+00
 1  2  3     0.0000000000e+00
 1  3  1     2.1761644032e-02
 1  3  2     0.0000000000e+00
 1  3  3     0.0000000000e+00
 2  1  1     1.2943637562e-03
 2  1  2     0.0000000000e+00
 2  1  3     0.0000000000e+00
 2  2  1     0.0000000000e+00
 2  2  2    -5.0465696657e-03
 2  2  3     4.6322591796e-02
 2  3  1     0.0000000000e+00
 2  3  2     3.2467873578e-02
 2  3  3    -9.9228731659e-03
 3  1  1     2.1761644032e-02
 3  1  2     0.0000000000e+00
 3  1  3     0.0000000000e+00
 3  2  1     0.0000000000e+00
 3  2  2     3.2467873578e-02
 3  2  3    -9.9228731659e-03
 3  3  1     0.0000000000e+00
 3  3  2    -4.1509448641e-02
 3  3  3     1.2009558593e-01

    7
0.0000000000e+00 0.0000000000e+00 0.0000000000e+00
3.1426645240e+00 0.0000000000e+00 0.0000000000e+00
     1      1      4
 1  1  1    -8.6419299533e+00
 1  1  2    -5.4056056139e+00
 1  1  3    -1.1067398899e+01
 1  2  1    -4.2913170216e+00
 1  2  2    -2.2373085003e+00
 1  2  3    -5.9247391195e+00
 1  3  1    -1.1511779270e+01
 1  3  2    -6.6309810521e+00
 1  3  3    -1.1634579486e+01
 2  1  1    -4.2913170216e+00
 2  1  2    -2.2373085003e+00
 2  1  3    -5.9247391195e+00
 2  2  1    -4.1673129568e+00
 2  2  2    -1.9898142300e+00
 2  2  3    -4.2260994515e+00
 2  3  1    -6.6309810521e+00
 2  3  2    -3.8549818828e+00
 2  3  3    -6.7172275996e+00
 3  1  1    -1.1511779270e+01
 3  1  2    -6.6309810521e+00
 3  1  3    -1.1634579486e+01
 3  2  1    -6.6309810521e+00
 3  2  2    -3.8549818828e+00
 3  2  3    -6.7172275996e+00
 3  3  1    -1.1334356509e+01
 3  3  2    -6.5438937830e+00
 3  3  3    -1.1950404423e+01

    8
0.0000000000e+00 0.0000000000e+00 0.0000000000e+00
3.1426645240e+00 0.0000000000e+00 0.0000000000e+00
     1      1      6
 1  1  1    -8.6419299533e+00
 1  1  2    -5.4056056139e+00
 1  1  3     1.1067398899e+01
 1  2  1    -4.2913170216e+00
 1  2  2    -2.2373085003e+00
 1  2  3     5.9247391195e+00
 1  3  1     1.1511779270e+01
 1  3  2     6.6309810521e+00
 1  3  3    -1.1634579486e+01
 2  1  1    -4.2913170216e+00
 2  1  2    -2.2373085003e+00
 2  1  3     5.9247391195e+00
 2  2  1    -4.1673129568e+00
 2  2  2    -1.9898142300e+00
 2  2  3     4.2260994515e+00
 2  3  1     6.6309810521e+00
 2  3  2     3.8549818828e+00
 2  3  3    -6.7172275996e+00
 3  1  1     1.1511779270e+01
 3  1  2     6.6309810521e+00
 3  1  3    -1.1634579486e+01
 3  2  1     6.6309810521e+00
 3  2  2     3.8549818828e+00
 3  2  3    -6.7172275996e+00
 3  3  1    -1.1334356509e+01
 3  3  2    -6.5438937830e+00
 3  3  3     1.1950404423e+01

    9
0.0000000000e+00 0.0000000000e+00 0.0000000000e+00
-1.5713322620e+00 2.7216273140e+00 0.0000000000e+00
     1      1      1
 1  1  1     4.9425729316e-01
 1  1  2     2.3590312451e+00
 1  1  3     0.0000000000e+00
 1  2  1    -3.7589060751e+00
 1  2  2    -3.3674403284e+00
 1  2  3     0.0000000000e+00
 1  3  1     0.0000000000e+00
 1  3  2     0.0000000000e+00
 1  3  3    -4.3098589504e+00
 2  1  1    -3.7589060751e+00
 2  1  2    -3.3674403284e+00
 2  1  3     0.0000000000e+00
 2  2  1     7.2291379502e+00
 2  2  2     2.1000730778e+00
 2  2  3     0.0000000000e+00
 2  3  1     0.0000000000e+00
 2  3  2     0.0000000000e+00
 2  3  3    -2.4882982258e+00
 3  1  1     0.0000000000e+00
 3  1  2     0.0000000000e+00
 3  1  3    -4.3098589504e+00
 3  2  1     0.0000000000e+00
 3  2  2     0.0000000000e+00
 3  2  3    -2.4882982258e+00
 3  3  1    -8.5903317958e-01
 3  3  2    -4.9596303759e-01
 3  3  3     0.0000000000e+00

   10
0.0000000000e+00 0.0000000000e+00 0.0000000000e+00
-1.5713322620e+00 2.7216273140e+00 0.0000000000e+00
     1      1      3
 1  1  1     8.9745549019e-03
 1  1  2     6.4758254460e-03
 1  1  3     4.4651144579e-02
 1  2  1    -8.6217124523e-03
 1  2  2    -5.7250492697e-03
 1  2  3     2.8950314642e-03
 1  3  1     2.9791316180e-02
 1  3  2     4.6359333772e-03
 1  3  3     8.5934602382e-03
 2  1  1    -8.6217124523e-03
 2  1  2    -5.7250492697e-03
 2  1  3     2.8950314642e-03
 2  2  1     2.0424653446e-02
 2  2  2     1.0497815411e-02
 2  2  3     4.1308250209e-02
 2  3  1     4.6359333772e-03
 2  3  2     2.4438201426e-02
 2  3  3     4.9614365830e-03
 3  1  1     2.9791316180e-02
 3  1  2     4.6359333772e-03
 3  1  3     8.5934602382e-03
 3  2  1     4.6359333772e-03
 3  2  2     2.4438201426e-02
 3  2  3     4.9614365830e-03
 3  3  1     3.5948237012e-02
 3  3  2     2.0754724320e-02
 3  3  3     1.2009558593e-01

   11
0.0000000000e+00 0.0000000000e+00 0.0000000000e+00
1.5713322620e+00 -2.7216273140e+00 0.0000000000e+00
     1      1      4
 1  1  1     0.0000000000e+00
 1  1  2     1.8123921567e+00
 1  1  3    -8.0544972479e-01
 1  2  1    -4.1618502781e-01
 1  2  2     0.0000000000e+00
 1  2  3     0.0000000000e+00
 1  3  1    -2.6583186434e-02
 1  3  2     0.0000000000e+00
 1  3  3     0.0000000000e+00
 2  1  1    -4.1618502781e-01
 2  1  2     0.0000000000e+00
 2  1  3     0.0000000000e+00
 2  2  1     0.0000000000e+00
 2  2  2     1.2978447535e+01
 2  2  3    -1.4488048631e+01
 2  3  1     0.0000000000e+00
 2  3  2    -1.5340177972e+01
 2  3  3     1.3434455199e+01
 3  1  1    -2.6583186434e-02
 3  1  2     0.0000000000e+00
 3  1  3     0.0000000000e+00
 3  2  1     0.0000000000e+00
 3  2  2    -1.5340177972e+01
 3  2  3     1.3434455199e+01
 3  3  1     0.0000000000e+00
 3  3  2     1.3087787566e+01
 3  3  3    -1.1950404423e+01

   12
0.0000000000e+00 0.0000000000e+00 0.0000000000e+00
1.5713322620e+00 -2.7216273140e+00 0.0000000000e+00
     1      1      6
 1  1  1     0.0000000000e+00
 1  1  2     1.8123921567e+00
 1  1  3     8.0544972479e-01
 1  2  1    -4.1618502781e-01
 1  2  2     0.0000000000e+00
 1  2  3     0.0000000000e+00
 1  3  1     2.6583186434e-02
 1  3  2     0.0000000000e+00
 1  3  3     0.0000000000e+00
 2  1  1    -4.1618502781e-01
 2  1  2     0.0000000000e+00
 2  1  3     0.0000000000e+00
 2  2  1     0.0000000000e+00
 2  2  2     1.2978447535e+01
 2  2  3     1.4488048631e+01
 2  3  1     0.0000000000e+00
 2  3  2     1.5340177972e+01
 2  3  3     1.3434455199e+01
 3  1  1     2.6583186434e-02
 3  1  2     0.0000000000e+00
 3  1  3     0.0000000000e+00
 3  2  1     0.0000000000e+00
 3  2  2     1.5340177972e+01
 3  2  3     1.3434455199e+01
 3  3  1     0.0000000000e+00
 3  3  2     1.3087787566e+01
 3  3  3     1.1950404423e+01

   13
0.0000000000e+00 0.0000000000e+00 0.0000000000e+00
-1.5713322620e+00 -2.7216273140e+00 0.0000000000e+00
     1      1      1
 1  1  1    -4.9425729316e-01
 1  1  2     2.3590312451e+00
 1  1  3     0.0000000000e+00
 1  2  1    -3.7589060751e+00
 1  2  2     3.3674403284e+00
 1  2  3     0.0000000000e+00
 1  3  1     0.0000000000e+00
 1  3  2     0.0000000000e+00
 1  3  3     4.3098589504e+00
 2  1  1    -3.7589060751e+00
 2  1  2     3.3674403284e+00
 2  1  3     0.0000000000e+00
 2  2  1    -7.2291379502e+00
 2  2  2     2.1000730778e+00
 2  2  3     0.0000000000e+00
 2  3  1     0.0000000000e+00
 2  3  2     0.0000000000e+00
 2  3  3    -2.4882982258e+00
 3  1  1     0.0000000000e+00
 3  1  2     0.0000000000e+00
 3  1  3     4.3098589504e+00
 3  2  1     0.0000000000e+00
 3  2  2     0.0000000000e+00
 3  2  3    -2.4882982258e+00
 3  3  1     8.5903317958e-01
 3  3  2    -4.9596303759e-01
 3  3  3     0.0000000000e+00

   14
0.0000000000e+00 0.0000000000e+00 0.0000000000e+00
1.5713322620e+00 2.7216273140e+00 0.0000000000e+00
     1      1      3
 1  1  1    -8.9745549019e-03
 1  1  2     6.4758254460e-03
 1  1  3     4.4651144579e-02
 1  2  1    -8.6217124523e-03
 1  2  2     5.7250492697e-03
 1  2  3    -2.8950314642e-03
 1  3  1     2.9791316180e-02
 1  3  2    -4.6359333772e-03
 1  3  3    -8.5934602382e-03
 2  1  1    -8.6217124523e-03
 2  1  2     5.7250492697e-03
 2  1  3    -2.8950314642e-03
 2  2  1    -2.0424653446e-02
 2  2  2     1.0497815411e-02
 2  2  3     4.1308250209e-02
 2  3  1    -4.6359333772e-03
 2  3  2     2.4438201426e-02
 2  3  3     4.9614365830e-03
 3  1  1     2.9791316180e-02
 3  1  2    -4.6359333772e-03
 3  1  3    -8.5934602382e-03
 3  2  1    -4.6359333772e-03
 3  2  2     2.4438201426e-02
 3  2  3     4.9614365830e-03
 3  3  1    -3.5948237012e-02
 3  3  2     2.0754724320e-02
 3  3  3     1.2009558593e-01

   15
0.0000000000e+00 0.0000000000e+00 0.0000000000e+00
4.7139967860e+00 -2.7216273140e+00 0.0000000000e+00
     1      1      4
 1  1  1     0.0000000000e+00
 1  1  2     1.6420567531e+00
 1  1  3    -1.4719252732e+00
 1  2  1     1.6420567531e+00
 1  2  2     0.0000000000e+00
 1  2  3     0.0000000000e+00
 1  3  1     8.1289896226e-01
 1  3  2     0.0000000000e+00
 1  3  3     0.0000000000e+00
 2  1  1     1.6420567531e+00
 2  1  2     0.0000000000e+00
 2  1  3     0.0000000000e+00
 2  2  1     0.0000000000e+00
 2  2  2    -1.6420567539e+00
 2  2  3    -1.4719252739e+00
 2  3  1     0.0000000000e+00
 2  3  2     8.1289896264e-01
 2  3  3     0.0000000000e+00
 3  1  1     8.1289896226e-01
 3  1  2     0.0000000000e+00
 3  1  3     0.0000000000e+00
 3  2  1     0.0000000000e+00
 3  2  2     8.1289896264e-01
 3  2  3     0.0000000000e+00
 3  3  1     0.0000000000e+00
 3  3  2     0.0000000000e+00
 3  3  3    -1.9823998115e-01

   16
0.0000000000e+00 0.0000000000e+00 0.0000000000e+00
4.7139967860e+00 -2.7216273140e+00 0.0000000000e+00
     1      1      6
 1  1  1     0.0000000000e+00
 1  1  2     1.6420567531e+00
 1  1  3     1.4719252732e+00
 1  2  1     1.6420567531e+00
 1  2  2     0.0000000000e+00
 1  2  3     0.0000000000e+00
 1  3  1    -8.1289896226e-01
 1  3  2     0.0000000000e+00
 1  3  3     0.0000000000e+00
 2  1  1     1.6420567531e+00
 2  1  2     0.0000000000e+00
 2  1  3     0.0000000000e+00
 2  2  1     0.0000000000e+00
 2  2  2    -1.6420567539e+00
 2  2  3     1.4719252739e+00
 2  3  1     0.0000000000e+00
 2  3  2    -8.1289896264e-01
 2  3  3     0.0000000000e+00
 3  1  1    -8.1289896226e-01
 3  1  2     0.0000000000e+00
 3  1  3     0.0000000000e+00
 3  2  1     0.0000000000e+00
 3  2  2    -8.1289896264e-01
 3  2  3     0.0000000000e+00
 3  3  1     0.0000000000e+00
 3  3  2     0.0000000000e+00
 3  3  3     1.9823998115e-01

   17
0.0000000000e+00 0.0000000000e+00 0.0000000000e+00
0.0000000000e+00 0.0000000000e+00 -1.2598063667e+01
     1      1      5
 1  1  1     0.0000000000e+00
 1  1  2    -3.3285114893e-03
 1  1  3    -1.8193659662e-02
 1  2  1    -3.3285114893e-03
 1  2  2     0.0000000000e+00
 1  2  3     0.0000000000e+00
 1  3  1     2.0778941853e-02
 1  3  2     0.0000000000e+00
 1  3  3     0.0000000000e+00
 2  1  1    -3.3285114893e-03
 2  1  2     0.0000000000e+00
 2  1  3     0.0000000000e+00
 2  2  1     0.0000000000e+00
 2  2  2     3.3285114909e-03
 2  2  3    -1.8193659671e-02
 2  3  1     0.0000000000e+00
 2  3  2     2.0778941862e-02
 2  3  3     0.0000000000e+00
 3  1  1     2.0778941853e-02
 3  1  2     0.0000000000e+00
 3  1  3     0.0000000000e+00
 3  2  1     0.0000000000e+00
 3  2  2     2.0778941862e-02
 3  2  3     0.0000000000e+00
 3  3  1     0.0000000000e+00
 3  3  2     0.0000000000e+00
 3  3  3    -9.9061392385e-02

   18
0.0000000000e+00 0.0000000000e+00 0.0000000000e+00
-3.1426645240e+00 0.0000000000e+00 -1.2598063667e+01
     1      1      5
 1  1  1     0.0000000000e+00
 1  1  2    -2.8900712040e-02
 1  1  3    -3.9636802995e-02
 1  2  1     1.2943637562e-03
 1  2  2     0.0000000000e+00
 1  2  3     0.0000000000e+00
 1  3  1    -2.1761644032e-02
 1  3  2     0.0000000000e+00
 1  3  3     0.0000000000e+00
 2  1  1     1.2943637562e-03
 2  1  2     0.0000000000e+00
 2  1  3     0.0000000000e+00
 2  2  1     0.0000000000e+00
 2  2  2    -5.0465696657e-03
 2  2  3    -4.6322591796e-02
 2  3  1     0.0000000000e+00
 2  3  2    -3.2467873578e-02
 2  3  3    -9.9228731659e-03
 3  1  1    -2.1761644032e-02
 3  1  2     0.0000000000e+00
 3  1  3     0.0000000000e+00
 3  2  1     0.0000000000e+00
 3  2  2    -3.2467873578e-02
 3  2  3    -9.9228731659e-03
 3  3  1     0.0000000000e+00
 3  3  2    -4.1509448641e-02
 3  3  3    -1.2009558593e-01

   19
0.0000000000e+00 0.0000000000e+00 0.0000000000e+00
-1.5713322620e+00 2.7216273140e+00 -1.2598063667e+01
     1      1      5
 1  1  1     8.9745549019e-03
 1  1  2     6.4758254460e-03
 1  1  3    -4.4651144579e-02
 1  2  1    -8.6217124523e-03
 1  2  2    -5.7250492697e-03
 1  2  3    -2.8950314642e-03
 1  3  1    -2.9791316180e-02
 1  3  2    -4.6359333772e-03
 1  3  3     8.5934602382e-03
 2  1  1    -8.6217124523e-03
 2  1  2    -5.7250492697e-03
 2  1  3    -2.8950314642e-03
 2  2  1     2.0424653446e-02
 2  2  2     1.0497815411e-02
 2  2  3    -4.1308250209e-02
 2  3  1    -4.6359333772e-03
 2  3  2    -2.4438201426e-02
 2  3  3     4.9614365830e-03
 3  1  1    -2.9791316180e-02
 3  1  2    -4.6359333772e-03
 3  1  3     8.5934602382e-03
 3  2  1    -4.6359333772e-03
 3  2  2    -2.4438201426e-02
 3  2  3     4.9614365830e-03
 3  3  1     3.5948237012e-02
 3  3  2     2.0754724320e-02
 3  3  3    -1.2009558593e-01

   20
0.0000000000e+00 0.0000000000e+00 0.0000000000e+00
-1.5713322620e+00 -2.7216273140e+00 -1.2598063667e+01
     1      1      5
 1  1  1    -8.9745549019e-03
 1  1  2     6.4758254460e-03
 1  1  3    -4.4651144579e-02
 1  2  1    -8.6217124523e-03
 1  2  2     5.7250492697e-03
 1  2  3     2.8950314642e-03
 1  3  1    -2.9791316180e-02
 1  3  2     4.6359333772e-03
 1  3  3    -8.5934602382e-03
 2  1  1    -8.6217124523e-03
 2  1  2     5.7250492697e-03
 2  1  3     2.8950314642e-03
 2  2  1    -2.0424653446e-02
 2  2  2     1.0497815411e-02
 2  2  3    -4.1308250209e-02
 2  3  1     4.6359333772e-03
 2  3  2    -2.4438201426e-02
 2  3  3     4.9614365830e-03
 3  1  1    -2.9791316180e-02
 3  1  2     4.6359333772e-03
 3  1  3    -8.5934602382e-03
 3  2  1     4.6359333772e-03
 3  2  2    -2.4438201426e-02
 3  2  3     4.9614365830e-03
 3  3  1    -3.5948237012e-02
 3  3  2     2.0754724320e-02
 3  3  3    -1.2009558593e-01

   21
0.0000000000e+00 0.0000000000e+00 0.0000000000e+00
0.0000000000e+00 0.0000000000e+00 0.0000000000e+00
     1      3      1
 1  1  1     0.0000000000e+00
 1  1  2    -3.3285114893e-03
 1  1  3    -2.0778941853e-02
 1  2  1    -3.3285114893e-03
 1  2  2     0.0000000000e+00
 1  2  3     0.0000000000e+00
 1  3  1     1.8193659662e-02
 1  3  2     0.0000000000e+00
 1  3  3     0.0000000000e+00
 2  1  1    -3.3285114893e-03
 2  1  2     0.0000000000e+00
 2  1  3     0.0000000000e+00
 2  2  1     0.0000000000e+00
 2  2  2     3.3285114909e-03
 2  2  3    -2.0778941862e-02
 2  3  1     0.0000000000e+00
 2  3  2     1.8193659671e-02
 2  3  3     0.0000000000e+00
 3  1  1    -2.0778941853e-02
 3  1  2     0.0000000000e+00
 3  1  3     0.0000000000e+00
 3  2  1     0.0000000000e+00
 3  2  2    -2.0778941862e-02
 3  2  3     0.0000000000e+00
 3  3  1     0.0000000000e+00
 3  3  2     0.0000000000e+00
 3  3  3     9.9061392385e-02

   22
0.0000000000e+00 0.0000000000e+00 0.0000000000e+00
0.0000000000e+00 0.0000000000e+00 0.0000000000e+00
     1      3      3
 1  1  1     0.0000000000e+00
 1  1  2    -8.3735594850e-03
 1  1  3     1.2665525696e-02
 1  2  1    -8.3735594850e-03
 1  2  2     0.0000000000e+00
 1  2  3     0.0000000000e+00
 1  3  1     1.2665525696e-02
 1  3  2     0.0000000000e+00
 1  3  3     0.0000000000e+00
 2  1  1    -8.3735594850e-03
 2  1  2     0.0000000000e+00
 2  1  3     0.0000000000e+00
 2  2  1     0.0000000000e+00
 2  2  2     8.3735594889e-03
 2  2  3     1.2665525702e-02
 2  3  1     0.0000000000e+00
 2  3  2     1.2665525702e-02
 2  3  3     0.0000000000e+00
 3  1  1     4.0327236978e-02
 3  1  2     0.0000000000e+00
 3  1  3     0.0000000000e+00
 3  2  1     0.0000000000e+00
 3  2  2     4.0327236997e-02
 3  2  3     0.0000000000e+00
 3  3  1     0.0000000000e+00
 3  3  2     0.0000000000e+00
 3  3  3    -5.7760683491e-02

   23
0.0000000000e+00 0.0000000000e+00 0.0000000000e+00
0.0000000000e+00 0.0000000000e+00 0.0000000000e+00
     1      3      4
 1  1  1     8.9160209262e-04
 1  1  2     2.1559898644e-03
 1  1  3    -7.4772946051e-03
 1  2  1     7.6348169785e-03
 1  2  2    -9.8950268087e-03
 1  2  3     1.8662156644e-03
 1  3  1    -4.6645034975e-03
 1  3  2    -4.6717623056e-03
 1  3  3     1.1133164546e-02
 2  1  1     1.3722131361e-02
 2  1  2     6.4851098595e-04
 2  1  3     1.8662156644e-03
 2  2  1     1.0138117916e-02
 2  2  2    -8.5240016831e-03
 2  2  3    -5.3223743758e-03
 2  3  1    -4.6717623056e-03
 2  3  2    -1.0058989950e-02
 2  3  3    -6.4277355492e-03
 3  1  1    -5.2805225716e-03
 3  1  2     7.4301032571e-03
 3  1  3     3.7909805479e-02
 3  2  1     7.4301032571e-03
 3  2  2     3.2990216591e-03
 3  2  3    -2.1887236404e-02
 3  3  1     5.5542413477e-02
 3  3  2    -3.2067427380e-02
 3  3  3    -7.9741167835e-03

   24
0.0000000000e+00 0.0000000000e+00 0.0000000000e+00
-3.1426645240e+00 0.0000000000e+00 0.0000000000e+00
     1      3      1
 1  1  1     0.0000000000e+00
 1  1  2     1.1433670052e-02
 1  1  3     8.3222620402e-03
 1  2  1    -3.2222493219e-03
 1  2  2     0.0000000000e+00
 1  2  3     0.0000000000e+00
 1  3  1    -7.3667429787e-03
 1  3  2     0.0000000000e+00
 1  3  3     0.0000000000e+00
 2  1  1    -1.6114606865e-02
 2  1  2     0.0000000000e+00
 2  1  3     0.0000000000e+00
 2  2  1     0.0000000000e+00
 2  2  2     1.2354757006e-02
 2  2  3     2.6758396527e-03
 2  3  1     0.0000000000e+00
 2  3  2    -8.7915861567e-03
 2  3  3     2.7114489182e-02
 3  1  1    -5.2395506042e-03
 3  1  2     0.0000000000e+00
 3  1  3     0.0000000000e+00
 3  2  1     0.0000000000e+00
 3  2  2     8.7553585713e-03
 3  2  3     3.8369007433e-02
 3  3  1     0.0000000000e+00
 3  3  2     4.9853749041e-02
 3  3  3    -1.4780596511e-02

   25
0.0000000000e+00 0.0000000000e+00 0.0000000000e+00
-3.1426645240e+00 0.0000000000e+00 0.0000000000e+00
     1      3      3
 1  1  1     0.0000000000e+00
 1  1  2     2.5657756423e-03
 1  1  3     3.3351706865e-03
 1  2  1     1.2389369981e-02
 1  2  2     0.0000000000e+00
 1  2  3     0.0000000000e+00
 1  3  1     2.5720680227e-03
 1  3  2     0.0000000000e+00
 1  3  3     0.0000000000e+00
 2  1  1     4.3936246607e-03
 2  1  2     0.0000000000e+00
 2  1  3     0.0000000000e+00
 2  2  1     0.0000000000e+00
 2  2  2    -1.8839917476e-03
 2  2  3     6.7782124443e-03
 2  3  1     0.0000000000e+00
 2  3  2     4.1741682098e-03
 2  3  3    -1.6028558549e-02
 3  1  1    -1.5941550021e-02
 3  1  2     0.0000000000e+00
 3  1  3     0.0000000000e+00
 3  2  1     0.0000000000e+00
 3  2  2     5.9933459731e-03
 3  2  3    -1.1725613948e-02
 3  3  1     0.0000000000e+00
 3  3  2     6.9185552042e-03
 3  3  3     9.2010752013e-03

   26
0.0000000000e+00 0.0000000000e+00 0.0000000000e+00
3.1426645240e+00 0.0000000000e+00 0.0000000000e+00
     1      3      4
 1  1  1    -8.9160209262e-04
 1  1  2     2.1559898644e-03
 1  1  3    -7.4772946051e-03
 1  2  1     7.6348169785e-03
 1  2  2     9.8950268087e-03
 1  2  3    -1.8662156644e-03
 1  3  1    -4.6645034975e-03
 1  3  2     4.6717623056e-03
 1  3  3    -1.1133164546e-02
 2  1  1     1.3722131361e-02
 2  1  2    -6.4851098595e-04
 2  1  3    -1.8662156644e-03
 2  2  1    -1.0138117916e-02
 2  2  2    -8.5240016831e-03
 2  2  3    -5.3223743758e-03
 2  3  1     4.6717623056e-03
 2  3  2    -1.0058989950e-02
 2  3  3    -6.4277355492e-03
 3  1  1    -5.2805225716e-03
 3  1  2    -7.4301032571e-03
 3  1  3    -3.7909805479e-02
 3  2  1    -7.4301032571e-03
 3  2  2     3.2990216591e-03
 3  2  3    -2.1887236404e-02
 3  3  1    -5.5542413477e-02
 3  3  2    -3.2067427380e-02
 3  3  3    -7.9741167835e-03

   27
0.0000000000e+00 0.0000000000e+00 0.0000000000e+00
-1.5713322620e+00 2.7216273140e+00 0.0000000000e+00
     1      3      1
 1  1  1    -6.3135600724e-03
 1  1  2    -1.3313563702e-02
 1  1  3     4.0874452486e-03
 1  2  1    -5.9856040150e-03
 1  2  2     9.5696855736e-03
 1  2  3    -2.4449726152e-03
 1  3  1    -8.4353753591e-03
 1  3  2    -6.1697519264e-04
 1  3  3    -2.3481836436e-02
 2  1  1     4.6057475667e-04
 2  1  2    -1.5954235763e-03
 2  1  3    -2.4449726152e-03
 2  2  1    -1.4287822073e-02
 2  2  2     1.4193501764e-03
 2  2  3     6.9106564463e-03
 2  3  1    -6.1697519264e-04
 2  3  2    -7.7229537758e-03
 2  3  3    -1.3557244591e-02
 3  1  1     5.2566312743e-03
 3  1  2     6.0599734344e-03
 3  1  3    -3.3228535147e-02
 3  2  1     6.0599734344e-03
 3  2  2    -1.7408233122e-03
 3  2  3    -1.9184503717e-02
 3  3  1    -4.3174613133e-02
 3  3  2    -2.4926874520e-02
 3  3  3    -1.4780596511e-02

   28
0.0000000000e+00 0.0000000000e+00 0.0000000000e+00
-1.5713322620e+00 2.7216273140e+00 0.0000000000e+00
     1      3      3
 1  1  1    -2.9654431138e-03
 1  1  2     6.6793979402e-03
 1  1  3     5.9174520025e-03
 1  2  1     1.7676007711e-03
 1  2  2     7.9203725699e-04
 1  2  3     1.4908808132e-03
 1  3  1     3.7736431615e-03
 1  3  2     6.9372973002e-04
 1  3  3     1.3881138886e-02
 2  1  1     5.7654734310e-03
 2  1  2    -6.1324813139e-03
 2  1  3     1.4908808132e-03
 2  2  1     2.3750009416e-03
 2  2  2    -7.0202898913e-03
 2  2  3     4.1959311272e-03
 2  3  1     6.9372973002e-04
 2  3  2     2.9725930704e-03
 2  3  3     8.0142792744e-03
 3  1  1     5.0962197256e-04
 3  1  2     9.4980885810e-03
 3  1  3     1.0154679552e-02
 3  2  1     9.4980885810e-03
 3  2  2    -1.0457826028e-02
 3  2  3     5.8628069741e-03
 3  3  1    -5.9916445629e-03
 3  3  2    -3.4592776021e-03
 3  3  3     9.2010752013e-03

   29
0.0000000000e+00 0.0000000000e+00 0.0000000000e+00
1.5713322620e+00 -2.7216273140e+00 0.0000000000e+00
     1      3      4
 1  1  1     0.0000000000e+00
 1  1  2     1.9715725183e-02
 1  1  3    -4.2449142573e-03
 1  2  1     8.7580709552e-03
 1  2  2     0.0000000000e+00
 1  2  3     0.0000000000e+00
 1  3  1    -1.2756233170e-02
 1  3  2     0.0000000000e+00
 1  3  3     0.0000000000e+00
 2  1  1    -3.4165578098e-03
 2  1  2     0.0000000000e+00
 2  1  3     0.0000000000e+00
 2  2  1     0.0000000000e+00
 2  2  2    -6.9797015575e-03
 2  2  3    -8.5547547251e-03
 2  3  1     0.0000000000e+00
 2  3  2    -1.9672602743e-03
 2  3  3     1.2855471098e-02
 3  1  1     7.5887937721e-03
 3  1  2     0.0000000000e+00
 3  1  3     0.0000000000e+00
 3  2  1     0.0000000000e+00
 3  2  2    -9.5702946907e-03
 3  2  3     4.3774472807e-02
 3  3  1     0.0000000000e+00
 3  3  2     6.4134854760e-02
 3  3  3    -7.9741167835e-03

   30
0.0000000000e+00 0.0000000000e+00 0.0000000000e+00
1.5713322620e+00 2.7216273140e+00 0.0000000000e+00
     1      3      1
 1  1  1     6.3135600724e-03
 1  1  2    -1.3313563702e-02
 1  1  3     4.0874452486e-03
 1  2  1    -5.9856040150e-03
 1  2  2    -9.5696855736e-03
 1  2  3     2.4449726152e-03
 1  3  1    -8.4353753591e-03
 1  3  2     6.1697519264e-04
 1  3  3     2.3481836436e-02
 2  1  1     4.6057475667e-04
 2  1  2     1.5954235763e-03
 2  1  3     2.4449726152e-03
 2  2  1     1.4287822073e-02
 2  2  2     1.4193501764e-03
 2  2  3     6.9106564463e-03
 2  3  1     6.1697519264e-04
 2  3  2    -7.7229537758e-03
 2  3  3    -1.3557244591e-02
 3  1  1     5.2566312743e-03
 3  1  2    -6.0599734344e-03
 3  1  3     3.3228535147e-02
 3  2  1    -6.0599734344e-03
 3  2  2    -1.7408233122e-03
 3  2  3    -1.9184503717e-02
 3  3  1     4.3174613133e-02
 3  3  2    -2.4926874520e-02
 3  3  3    -1.4780596511e-02

   31
0.0000000000e+00 0.0000000000e+00 0.0000000000e+00
-1.5713322620e+00 -2.7216273140e+00 0.0000000000e+00
     1      3      3
 1  1  1     2.9654431138e-03
 1  1  2     6.6793979402e-03
 1  1  3     5.9174520025e-03
 1  2  1     1.7676007711e-03
 1  2  2    -7.9203725699e-04
 1  2  3    -1.4908808132e-03
 1  3  1     3.7736431615e-03
 1  3  2    -6.9372973002e-04
 1  3  3    -1.3881138886e-02
 2  1  1     5.7654734310e-03
 2  1  2     6.1324813139e-03
 2  1  3    -1.4908808132e-03
 2  2  1    -2.3750009416e-03
 2  2  2    -7.0202898913e-03
 2  2  3     4.1959311272e-03
 2  3  1    -6.9372973002e-04
 2  3  2     2.9725930704e-03
 2  3  3     8.0142792744e-03
 3  1  1     5.0962197256e-04
 3  1  2    -9.4980885810e-03
 3  1  3    -1.0154679552e-02
 3  2  1    -9.4980885810e-03
 3  2  2    -1.0457826028e-02
 3  2  3     5.8628069741e-03
 3  3  1     5.9916445629e-03
 3  3  2    -3.4592776021e-03
 3  3  3     9.2010752013e-03

   32
0.0000000000e+00 0.0000000000e+00 0.0000000000e+00
4.7139967860e+00 -2.7216273140e+00 0.0000000000e+00
     1      3      4
 1  1  1     0.0000000000e+00
 1  1  2    -1.3054917508e-02
 1  1  3    -4.3562271524e-03
 1  2  1    -1.3054917508e-02
 1  2  2     0.0000000000e+00
 1  2  3     0.0000000000e+00
 1  3  1     5.3407575045e-03
 1  3  2     0.0000000000e+00
 1  3  3     0.0000000000e+00
 2  1  1    -1.3054917508e-02
 2  1  2     0.0000000000e+00
 2  1  3     0.0000000000e+00
 2  2  1     0.0000000000e+00
 2  2  2     1.3054917514e-02
 2  2  3    -4.3562271545e-03
 2  3  1     0.0000000000e+00
 2  3  2     5.3407575071e-03
 2  3  3     0.0000000000e+00
 3  1  1    -6.9329129414e-03
 3  1  2     0.0000000000e+00
 3  1  3     0.0000000000e+00
 3  2  1     0.0000000000e+00
 3  2  2    -6.9329129446e-03