   0.68735E+00   0.63263E-04   0.30722E-04
   0.13747E+01   0.48797E-03   0.23698E-03
   0.20621E+01   0.78035E-03   0.37855E-03
   0.27494E+01   0.16991E-02   0.82338E-03
   0.34368E+01   0.20999E-02   0.10152E-02
   0.41241E+01   0.33885E-02   0.16360E-02
   0.48115E+01   0.40596E-02   0.19514E-02
   0.54988E+01   0.54472E-02   0.26133E-02
   0.61862E+01   0.65505E-02   0.31233E-02
   0.68735E+01   0.81136E-02   0.38505E-02
   0.75609E+01   0.94793E-02   0.44666E-02
   0.82482E+01   0.11218E-01   0.52462E-02
   0.89356E+01   0.13028E-01   0.60420E-02
   0.96229E+01   0.15391E-01   0.70625E-02
   0.10310E+02   0.17514E-01   0.79558E-02
   0.10998E+02   0.20258E-01   0.90953E-02
   0.11685E+02   0.23564E-01   0.10446E-01
   0.12372E+02   0.27208E-01   0.11911E-01
   0.13060E+02   0.31144E-01   0.13405E-01
   0.13747E+02   0.37120E-01   0.15839E-01
   0.14434E+02   0.41882E-01   0.17495E-01
   0.15122E+02   0.47927E-01   0.19714E-01
   0.15809E+02   0.58144E-01   0.23591E-01
   0.16496E+02   0.71189E-01   0.28819E-01
   0.17184E+02   0.87416E-01   0.34751E-01
   0.17871E+02   0.90807E-01   0.34187E-01
   0.18559E+02   0.98836E-01   0.34939E-01
   0.19246E+02   0.10462E+00   0.34535E-01
   0.19933E+02   0.11464E+00   0.34823E-01
   0.20621E+02   0.12736E+00   0.34802E-01
   0.21308E+02   0.14208E+00   0.34042E-01
   0.21995E+02   0.16614E+00   0.33285E-01
   0.22683E+02   0.21902E+00   0.31504E-01
   0.23370E+02   0.24704E+00   0.24713E-01
   0.24057E+02   0.14950E+00   0.20688E-01
   0.24745E+02   0.12846E+00   0.19714E-01
   0.25432E+02   0.12343E+00   0.22266E-01
   0.26119E+02   0.93190E-01   0.18645E-01
   0.26807E+02   0.69467E-01   0.14633E-01
   0.27494E+02   0.48388E-01   0.11273E-01
   0.28181E+02   0.39575E-01   0.10197E-01
   0.28869E+02   0.47869E-01   0.13909E-01
   0.29556E+02   0.64835E-01   0.20120E-01
   0.30244E+02   0.85913E-01   0.27973E-01
   0.30931E+02   0.10879E+00   0.38182E-01
   0.31618E+02   0.19226E+00   0.77633E-01
   0.32306E+02   0.13034E+00   0.49522E-01
   0.32993E+02   0.96697E-01   0.39671E-01
   0.33680E+02   0.75053E-01   0.37792E-01
   0.34368E+02   0.38552E-01   0.47048E-01
   0.35055E+02   0.28916E-01   0.19373E+00
   0.35742E+02   0.49744E-01   0.22531E+00
   0.36430E+02   0.74812E-01   0.25283E+00
   0.37117E+02   0.10946E+00   0.28974E+00
   0.37804E+02   0.17783E+00   0.38159E+00
   0.38492E+02   0.21512E+00   0.39709E+00
   0.39179E+02   0.12116E+00   0.26259E+00
   0.39866E+02   0.42501E-01   0.10904E+00
   0.40554E+02   0.43354E-01   0.18618E+00
   0.41241E+02   0.84106E-02   0.66764E-01
   0.41928E+02   0.61846E-02   0.65640E-01
   0.42616E+02   0.47564E-02   0.63050E-01
   0.43303E+02   0.40623E-02   0.60518E-01
   0.43991E+02   0.39023E-02   0.59757E-01
   0.44678E+02   0.39973E-02   0.57763E-01
   0.45365E+02   0.42423E-02   0.55304E-01
   0.46053E+02   0.46537E-02   0.53981E-01
   0.46740E+02   0.50708E-02   0.53034E-01
   0.47427E+02   0.55933E-02   0.53048E-01
   0.48115E+02   0.60364E-02   0.51602E-01
   0.48802E+02   0.66212E-02   0.51446E-01
   0.49489E+02   0.70369E-02   0.50359E-01
   0.50177E+02   0.76485E-02   0.49759E-01
   0.50864E+02   0.80906E-02   0.44194E-01
   0.51551E+02   0.82699E-02   0.36766E-01
   0.52239E+02   0.82746E-02   0.32711E-01
   0.52926E+02   0.84872E-02   0.30503E-01
   0.53613E+02   0.81521E-02   0.26843E-01
   0.54301E+02   0.80610E-02   0.24956E-01
   0.54988E+02   0.81211E-02   0.23650E-01
   0.55676E+02   0.74051E-02   0.20455E-01
   0.56363E+02   0.73249E-02   0.19407E-01
   0.57050E+02   0.72005E-02   0.18302E-01
   0.57738E+02   0.64521E-02   0.15796E-01
   0.58425E+02   0.58790E-02   0.13946E-01
   0.59112E+02   0.54944E-02   0.12663E-01
   0.59800E+02   0.50084E-02   0.11233E-01
   0.60487E+02   0.42610E-02   0.93163E-02
   0.61174E+02   0.35330E-02   0.75407E-02
   0.61862E+02   0.26597E-02   0.55668E-02
   0.62549E+02   0.16280E-03   0.33550E-03
   0.63236E+02   0.00000E+00   0.00000E+00
   0.63924E+02   0.00000E+00   0.00000E+00
   0.64611E+02   0.00000E+00   0.00000E+00
   0.65298E+02   0.00000E+00   0.00000E+00
   0.65986E+02   0.00000E+00   0.00000E+00
   0.66673E+02   0.00000E+00   0.00000E+00
   0.67361E+02   0.00000E+00   0.00000E+00
   0.68048E+02   0.00000E+00   0.00000E+00
   0.68735E+02   0.00000E+00   0.00000E+00
