 2774

    1
0.0000000000e+00 0.0000000000e+00 0.0000000000e+00
0.0000000000e+00 0.0000000000e+00 0.0000000000e+00
     1      1      1
 1  1  1     0.0000000000e+00
 1  1  2     0.0000000000e+00
 1  1  3     0.0000000000e+00
 1  2  1     0.0000000000e+00
 1  2  2     0.0000000000e+00
 1  2  3     0.0000000000e+00
 1  3  1     0.0000000000e+00
 1  3  2     0.0000000000e+00
 1  3  3     0.0000000000e+00
 2  1  1     0.0000000000e+00
 2  1  2     0.0000000000e+00
 2  1  3     0.0000000000e+00
 2  2  1     0.0000000000e+00
 2  2  2     0.0000000000e+00
 2  2  3     0.0000000000e+00
 2  3  1     0.0000000000e+00
 2  3  2     0.0000000000e+00
 2  3  3     0.0000000000e+00
 3  1  1     0.0000000000e+00
 3  1  2     0.0000000000e+00
 3  1  3     0.0000000000e+00
 3  2  1     0.0000000000e+00
 3  2  2     0.0000000000e+00
 3  2  3     0.0000000000e+00
 3  3  1     0.0000000000e+00
 3  3  2     0.0000000000e+00
 3  3  3     0.0000000000e+00

    2
0.0000000000e+00 0.0000000000e+00 0.0000000000e+00
0.0000000000e+00 0.0000000000e+00 0.0000000000e+00
     1      1      2
 1  1  1     4.3863108848e-02
 1  1  2     4.6517884825e-02
 1  1  3     4.6517884825e-02
 1  2  1     1.5612747417e-02
 1  2  2    -1.5612747417e-02
 1  2  3    -7.2985180199e-02
 1  3  1     1.5612747417e-02
 1  3  2    -7.2985180199e-02
 1  3  3    -1.5612747417e-02
 2  1  1     1.5612747417e-02
 2  1  2    -1.5612747417e-02
 2  1  3    -7.2985180199e-02
 2  2  1    -4.6517884825e-02
 2  2  2    -4.3863108848e-02
 2  2  3     4.6517884825e-02
 2  3  1    -7.2985180199e-02
 2  3  2     1.5612747417e-02
 2  3  3     1.5612747417e-02
 3  1  1     1.5612747417e-02
 3  1  2    -7.2985180199e-02
 3  1  3    -1.5612747417e-02
 3  2  1    -7.2985180199e-02
 3  2  2     1.5612747417e-02
 3  2  3     1.5612747417e-02
 3  3  1    -4.6517884825e-02
 3  3  2     4.6517884825e-02
 3  3  3    -4.3863108848e-02

    3
0.0000000000e+00 0.0000000000e+00 0.0000000000e+00
-2.5805803939e+00 0.0000000000e+00 2.5805803939e+00
     1      1      1
 1  1  1    -1.4783843755e-02
 1  1  2     0.0000000000e+00
 1  1  3    -2.6334947231e-01
 1  2  1     0.0000000000e+00
 1  2  2    -1.1417511282e-01
 1  2  3     0.0000000000e+00
 1  3  1    -2.5622121482e-01
 1  3  2     0.0000000000e+00
 1  3  3     2.5622121482e-01
 2  1  1     0.0000000000e+00
 2  1  2    -1.1417511282e-01
 2  1  3     0.0000000000e+00
 2  2  1    -1.5799044787e-01
 2  2  2     0.0000000000e+00
 2  2  3     1.5799044787e-01
 2  3  1     0.0000000000e+00
 2  3  2     1.1417511282e-01
 2  3  3     0.0000000000e+00
 3  1  1    -2.5622121482e-01
 3  1  2     0.0000000000e+00
 3  1  3     2.5622121482e-01
 3  2  1     0.0000000000e+00
 3  2  2     1.1417511282e-01
 3  2  3     0.0000000000e+00
 3  3  1     2.6334947231e-01
 3  3  2     0.0000000000e+00
 3  3  3     1.4783843755e-02

    4
0.0000000000e+00 0.0000000000e+00 0.0000000000e+00
5.1611607878e+00 0.0000000000e+00 -5.1611607878e+00
     1      1      2
 1  1  1    -4.3863108848e-02
 1  1  2     4.6517884825e-02
 1  1  3    -4.6517884825e-02
 1  2  1     1.5612747417e-02
 1  2  2     1.5612747417e-02
 1  2  3    -7.2985180199e-02
 1  3  1    -1.5612747417e-02
 1  3  2    -7.2985180199e-02
 1  3  3     1.5612747417e-02
 2  1  1     1.5612747417e-02
 2  1  2     1.5612747417e-02
 2  1  3    -7.2985180199e-02
 2  2  1     4.6517884825e-02
 2  2  2    -4.3863108848e-02
 2  2  3    -4.6517884825e-02
 2  3  1    -7.2985180199e-02
 2  3  2    -1.5612747417e-02
 2  3  3     1.5612747417e-02
 3  1  1    -1.5612747417e-02
 3  1  2    -7.2985180199e-02
 3  1  3     1.5612747417e-02
 3  2  1    -7.2985180199e-02
 3  2  2    -1.5612747417e-02
 3  2  3     1.5612747417e-02
 3  3  1     4.6517884825e-02
 3  3  2     4.6517884825e-02
 3  3  3     4.3863108848e-02

    5
0.0000000000e+00 0.0000000000e+00 0.0000000000e+00
2.5805803939e+00 0.0000000000e+00 -2.5805803939e+00
     1      1      1
 1  1  1     1.4783843755e-02
 1  1  2     0.0000000000e+00
 1  1  3     2.6334947231e-01
 1  2  1     0.0000000000e+00
 1  2  2     1.1417511282e-01
 1  2  3     0.0000000000e+00
 1  3  1     2.5622121482e-01
 1  3  2     0.0000000000e+00
 1  3  3    -2.5622121482e-01
 2  1  1     0.0000000000e+00
 2  1  2     1.1417511282e-01
 2  1  3     0.0000000000e+00
 2  2  1     1.5799044787e-01
 2  2  2     0.0000000000e+00
 2  2  3    -1.5799044787e-01
 2  3  1     0.0000000000e+00
 2  3  2    -1.1417511282e-01
 2  3  3     0.0000000000e+00
 3  1  1     2.5622121482e-01
 3  1  2     0.0000000000e+00
 3  1  3    -2.5622121482e-01
 3  2  1     0.0000000000e+00
 3  2  2    -1.1417511282e-01
 3  2  3     0.0000000000e+00
 3  3  1    -2.6334947231e-01
 3  3  2     0.0000000000e+00
 3  3  3    -1.4783843755e-02

    6
0.0000000000e+00 0.0000000000e+00 0.0000000000e+00
2.5805803939e+00 0.0000000000e+00 -2.5805803939e+00
     1      1      2
 1  1  1     0.0000000000e+00
 1  1  2     2.5404360235e-01
 1  1  3     0.0000000000e+00
 1  2  1     3.0124240773e-01
 1  2  2     0.0000000000e+00
 1  2  3     0.0000000000e+00
 1  3  1     0.0000000000e+00
 1  3  2     0.0000000000e+00
 1  3  3     0.0000000000e+00
 2  1  1     3.0124240773e-01
 2  1  2     0.0000000000e+00
 2  1  3     0.0000000000e+00
 2  2  1     0.0000000000e+00
 2  2  2    -7.5355564354e+00
 2  2  3     0.0000000000e+00
 2  3  1     0.0000000000e+00
 2  3  2     0.0000000000e+00
 2  3  3     3.0124240773e-01
 3  1  1     0.0000000000e+00
 3  1  2     0.0000000000e+00
 3  1  3     0.0000000000e+00
 3  2  1     0.0000000000e+00
 3  2  2     0.0000000000e+00
 3  2  3     3.0124240773e-01
 3  3  1     0.0000000000e+00
 3  3  2     2.5404360235e-01
 3  3  3     0.0000000000e+00

    7
0.0000000000e+00 0.0000000000e+00 0.0000000000e+00
0.0000000000e+00 2.5805803939e+00 2.5805803939e+00
     1      1      1
 1  1  1     0.0000000000e+00
 1  1  2     1.5799044787e-01
 1  1  3     1.5799044787e-01
 1  2  1     1.1417511282e-01
 1  2  2     0.0000000000e+00
 1  2  3     0.0000000000e+00
 1  3  1     1.1417511282e-01
 1  3  2     0.0000000000e+00
 1  3  3     0.0000000000e+00
 2  1  1     1.1417511282e-01
 2  1  2     0.0000000000e+00
 2  1  3     0.0000000000e+00
 2  2  1     0.0000000000e+00
 2  2  2     1.4783843755e-02
 2  2  3    -2.6334947231e-01
 2  3  1     0.0000000000e+00
 2  3  2    -2.5622121482e-01
 2  3  3    -2.5622121482e-01
 3  1  1     1.1417511282e-01
 3  1  2     0.0000000000e+00
 3  1  3     0.0000000000e+00
 3  2  1     0.0000000000e+00
 3  2  2    -2.5622121482e-01
 3  2  3    -2.5622121482e-01
 3  3  1     0.0000000000e+00
 3  3  2    -2.6334947231e-01
 3  3  3     1.4783843755e-02

    8
0.0000000000e+00 0.0000000000e+00 0.0000000000e+00
0.0000000000e+00 -5.1611607878e+00 -5.1611607878e+00
     1      1      2
 1  1  1     4.3863108848e-02
 1  1  2    -4.6517884825e-02
 1  1  3    -4.6517884825e-02
 1  2  1    -1.5612747417e-02
 1  2  2    -1.5612747417e-02
 1  2  3    -7.2985180199e-02
 1  3  1    -1.5612747417e-02
 1  3  2    -7.2985180199e-02
 1  3  3    -1.5612747417e-02
 2  1  1    -1.5612747417e-02
 2  1  2    -1.5612747417e-02
 2  1  3    -7.2985180199e-02
 2  2  1    -4.6517884825e-02
 2  2  2     4.3863108848e-02
 2  2  3    -4.6517884825e-02
 2  3  1    -7.2985180199e-02
 2  3  2    -1.5612747417e-02
 2  3  3    -1.5612747417e-02
 3  1  1    -1.5612747417e-02
 3  1  2    -7.2985180199e-02
 3  1  3    -1.5612747417e-02
 3  2  1    -7.2985180199e-02
 3  2  2    -1.5612747417e-02
 3  2  3    -1.5612747417e-02
 3  3  1    -4.6517884825e-02
 3  3  2    -4.6517884825e-02
 3  3  3     4.3863108848e-02

    9
0.0000000000e+00 0.0000000000e+00 0.0000000000e+00
5.1611607878e+00 2.5805803939e+00 -2.5805803939e+00
     1      1      2
 1  1  1    -5.1849645344e-02
 1  1  2     9.8559559866e-03
 1  1  3     0.0000000000e+00
 1  2  1    -4.7646607614e-02
 1  2  2     4.7646607614e-02
 1  2  3     0.0000000000e+00
 1  3  1     0.0000000000e+00
 1  3  2     0.0000000000e+00
 1  3  3     1.2644404075e-02
 2  1  1    -4.7646607614e-02
 2  1  2     4.7646607614e-02
 2  1  3     0.0000000000e+00
 2  2  1    -9.8559559866e-03
 2  2  2     5.1849645344e-02
 2  2  3     0.0000000000e+00
 2  3  1     0.0000000000e+00
 2  3  2     0.0000000000e+00
 2  3  3    -1.2644404075e-02
 3  1  1     0.0000000000e+00
 3  1  2     0.0000000000e+00
 3  1  3     1.2644404075e-02
 3  2  1     0.0000000000e+00
 3  2  2     0.0000000000e+00
 3  2  3    -1.2644404075e-02
 3  3  1     1.7164268031e-02
 3  3  2    -1.7164268031e-02
 3  3  3     0.0000000000e+00

   10
0.0000000000e+00 0.0000000000e+00 0.0000000000e+00
2.5805803939e+00 2.5805803939e+00 -5.5511151231e-16
     1      1      1
 1  1  1     1.4783843755e-02
 1  1  2    -2.6334947231e-01
 1  1  3     0.0000000000e+00
 1  2  1    -2.5622121482e-01
 1  2  2    -2.5622121482e-01
 1  2  3     0.0000000000e+00
 1  3  1     0.0000000000e+00
 1  3  2     0.0000000000e+00
 1  3  3     1.1417511282e-01
 2  1  1    -2.5622121482e-01
 2  1  2    -2.5622121482e-01
 2  1  3     0.0000000000e+00
 2  2  1    -2.6334947231e-01
 2  2  2     1.4783843755e-02
 2  2  3     0.0000000000e+00
 2  3  1     0.0000000000e+00
 2  3  2     0.0000000000e+00
 2  3  3     1.1417511282e-01
 3  1  1     0.0000000000e+00
 3  1  2     0.0000000000e+00
 3  1  3     1.1417511282e-01
 3  2  1     0.0000000000e+00
 3  2  2     0.0000000000e+00
 3  2  3     1.1417511282e-01
 3  3  1     1.5799044787e-01
 3  3  2     1.5799044787e-01
 3  3  3     0.0000000000e+00

   11
0.0000000000e+00 0.0000000000e+00 0.0000000000e+00
2.5805803939e+00 -5.1611607878e+00 -7.7417411817e+00
     1      1      2
 1  1  1     0.0000000000e+00
 1  1  2    -1.7164268031e-02
 1  1  3     1.7164268031e-02
 1  2  1    -1.2644404075e-02
 1  2  2     0.0000000000e+00
 1  2  3     0.0000000000e+00
 1  3  1     1.2644404075e-02
 1  3  2     0.0000000000e+00
 1  3  3     0.0000000000e+00
 2  1  1    -1.2644404075e-02
 2  1  2     0.0000000000e+00
 2  1  3     0.0000000000e+00
 2  2  1     0.0000000000e+00
 2  2  2     5.1849645344e-02
 2  2  3    -9.8559559866e-03
 2  3  1     0.0000000000e+00
 2  3  2     4.7646607614e-02
 2  3  3    -4.7646607614e-02
 3  1  1     1.2644404075e-02
 3  1  2     0.0000000000e+00
 3  1  3     0.0000000000e+00
 3  2  1     0.0000000000e+00
 3  2  2     4.7646607614e-02
 3  2  3    -4.7646607614e-02
 3  3  1     0.0000000000e+00
 3  3  2     9.8559559866e-03
 3  3  3    -5.1849645344e-02

   12
0.0000000000e+00 0.0000000000e+00 0.0000000000e+00
0.0000000000e+00 -2.5805803939e+00 -2.5805803939e+00
     1      1      1
 1  1  1     0.0000000000e+00
 1  1  2    -1.5799044787e-01
 1  1  3    -1.5799044787e-01
 1  2  1    -1.1417511282e-01
 1  2  2     0.0000000000e+00
 1  2  3     0.0000000000e+00
 1  3  1    -1.1417511282e-01
 1  3  2     0.0000000000e+00
 1  3  3     0.0000000000e+00
 2  1  1    -1.1417511282e-01
 2  1  2     0.0000000000e+00
 2  1  3     0.0000000000e+00
 2  2  1     0.0000000000e+00
 2  2  2    -1.4783843755e-02
 2  2  3     2.6334947231e-01
 2  3  1     0.0000000000e+00
 2  3  2     2.5622121482e-01
 2  3  3     2.5622121482e-01
 3  1  1    -1.1417511282e-01
 3  1  2     0.0000000000e+00
 3  1  3     0.0000000000e+00
 3  2  1     0.0000000000e+00
 3  2  2     2.5622121482e-01
 3  2  3     2.5622121482e-01
 3  3  1     0.0000000000e+00
 3  3  2     2.6334947231e-01
 3  3  3    -1.4783843755e-02

   13
0.0000000000e+00 0.0000000000e+00 0.0000000000e+00
0.0000000000e+00 -2.5805803939e+00 -2.5805803939e+00
     1      1      2
 1  1  1     7.5355564354e+00
 1  1  2     0.0000000000e+00
 1  1  3     0.0000000000e+00
 1  2  1     0.0000000000e+00
 1  2  2    -3.0124240773e-01
 1  2  3     0.0000000000e+00
 1  3  1     0.0000000000e+00
 1  3  2     0.0000000000e+00
 1  3  3    -3.0124240773e-01
 2  1  1     0.0000000000e+00
 2  1  2    -3.0124240773e-01
 2  1  3     0.0000000000e+00
 2  2  1    -2.5404360235e-01
 2  2  2     0.0000000000e+00
 2  2  3     0.0000000000e+00
 2  3  1     0.0000000000e+00
 2  3  2     0.0000000000e+00
 2  3  3     0.0000000000e+00
 3  1  1     0.0000000000e+00
 3  1  2     0.0000000000e+00
 3  1  3    -3.0124240773e-01
 3  2  1     0.0000000000e+00
 3  2  2     0.0000000000e+00
 3  2  3     0.0000000000e+00
 3  3  1    -2.5404360235e-01
 3  3  2     0.0000000000e+00
 3  3  3     0.0000000000e+00

   14
0.0000000000e+00 0.0000000000e+00 0.0000000000e+00
-2.5805803939e+00 -2.5805803939e+00 -5.5511151231e-16
     1      1      1
 1  1  1    -1.4783843755e-02
 1  1  2     2.6334947231e-01
 1  1  3     0.0000000000e+00
 1  2  1     2.5622121482e-01
 1  2  2     2.5622121482e-01
 1  2  3     0.0000000000e+00
 1  3  1     0.0000000000e+00
 1  3  2     0.0000000000e+00
 1  3  3    -1.1417511282e-01
 2  1  1     2.5622121482e-01
 2  1  2     2.5622121482e-01
 2  1  3     0.0000000000e+00
 2  2  1     2.6334947231e-01
 2  2  2    -1.4783843755e-02
 2  2  3     0.0000000000e+00
 2  3  1     0.0000000000e+00
 2  3  2     0.0000000000e+00
 2  3  3    -1.1417511282e-01
 3  1  1     0.0000000000e+00
 3  1  2     0.0000000000e+00
 3  1  3    -1.1417511282e-01
 3  2  1     0.0000000000e+00
 3  2  2     0.0000000000e+00
 3  2  3    -1.1417511282e-01
 3  3  1    -1.5799044787e-01
 3  3  2    -1.5799044787e-01
 3  3  3     0.0000000000e+00

   15
0.0000000000e+00 0.0000000000e+00 0.0000000000e+00
5.1611607878e+00 -2.5805803939e+00 -7.7417411817e+00
     1      1      2
 1  1  1    -5.1849645344e-02
 1  1  2     0.0000000000e+00
 1  1  3    -9.8559559866e-03
 1  2  1     0.0000000000e+00
 1  2  2     1.2644404075e-02
 1  2  3     0.0000000000e+00
 1  3  1     4.7646607614e-02
 1  3  2     0.0000000000e+00
 1  3  3     4.7646607614e-02
 2  1  1     0.0000000000e+00
 2  1  2     1.2644404075e-02
 2  1  3     0.0000000000e+00
 2  2  1     1.7164268031e-02
 2  2  2     0.0000000000e+00
 2  2  3     1.7164268031e-02
 2  3  1     0.0000000000e+00
 2  3  2     1.2644404075e-02
 2  3  3     0.0000000000e+00
 3  1  1     4.7646607614e-02
 3  1  2     0.0000000000e+00
 3  1  3     4.7646607614e-02
 3  2  1     0.0000000000e+00
 3  2  2     1.2644404075e-02
 3  2  3     0.0000000000e+00
 3  3  1    -9.8559559866e-03
 3  3  2     0.0000000000e+00
 3  3  3    -5.1849645344e-02

   16
0.0000000000e+00 0.0000000000e+00 0.0000000000e+00
2.5805803939e+00 -2.5805803939e+00 -5.1611607878e+00
     1      1      2
 1  1  1     0.0000000000e+00
 1  1  2     0.0000000000e+00
 1  1  3    -2.5404360235e-01
 1  2  1     0.0000000000e+00
 1  2  2     0.0000000000e+00
 1  2  3     0.0000000000e+00
 1  3  1    -3.0124240773e-01
 1  3  2     0.0000000000e+00
 1  3  3     0.0000000000e+00
 2  1  1     0.0000000000e+00
 2  1  2     0.0000000000e+00
 2  1  3     0.0000000000e+00
 2  2  1     0.0000000000e+00
 2  2  2     0.0000000000e+00
 2  2  3    -2.5404360235e-01
 2  3  1     0.0000000000e+00
 2  3  2    -3.0124240773e-01
 2  3  3     0.0000000000e+00
 3  1  1    -3.0124240773e-01
 3  1  2     0.0000000000e+00
 3  1  3     0.0000000000e+00
 3  2  1     0.0000000000e+00
 3  2  2    -3.0124240773e-01
 3  2  3     0.0000000000e+00
 3  3  1     0.0000000000e+00
 3  3  2     0.0000000000e+00
 3  3  3     7.5355564354e+00

   17
0.0000000000e+00 0.0000000000e+00 0.0000000000e+00
-2.5805803939e+00 2.5805803939e+00 0.0000000000e+00
     1      1      1
 1  1  1    -1.4783843755e-02
 1  1  2    -2.6334947231e-01
 1  1  3     0.0000000000e+00
 1  2  1    -2.5622121482e-01
 1  2  2     2.5622121482e-01
 1  2  3     0.0000000000e+00
 1  3  1     0.0000000000e+00
 1  3  2     0.0000000000e+00
 1  3  3    -1.1417511282e-01
 2  1  1    -2.5622121482e-01
 2  1  2     2.5622121482e-01
 2  1  3     0.0000000000e+00
 2  2  1     2.6334947231e-01
 2  2  2     1.4783843755e-02
 2  2  3     0.0000000000e+00
 2  3  1     0.0000000000e+00
 2  3  2     0.0000000000e+00
 2  3  3     1.1417511282e-01
 3  1  1     0.0000000000e+00
 3  1  2     0.0000000000e+00
 3  1  3    -1.1417511282e-01
 3  2  1     0.0000000000e+00
 3  2  2     0.0000000000e+00
 3  2  3     1.1417511282e-01
 3  3  1    -1.5799044787e-01
 3  3  2     1.5799044787e-01
 3  3  3     0.0000000000e+00

   18
0.0000000000e+00 0.0000000000e+00 0.0000000000e+00
5.1611607878e+00 -5.1611607878e+00 0.0000000000e+00
     1      1      2
 1  1  1    -4.3863108848e-02
 1  1  2    -4.6517884825e-02
 1  1  3     4.6517884825e-02
 1  2  1    -1.5612747417e-02
 1  2  2     1.5612747417e-02
 1  2  3    -7.2985180199e-02
 1  3  1     1.5612747417e-02
 1  3  2    -7.2985180199e-02
 1  3  3     1.5612747417e-02
 2  1  1    -1.5612747417e-02
 2  1  2     1.5612747417e-02
 2  1  3    -7.2985180199e-02
 2  2  1     4.6517884825e-02
 2  2  2     4.3863108848e-02
 2  2  3     4.6517884825e-02
 2  3  1    -7.2985180199e-02
 2  3  2     1.5612747417e-02
 2  3  3    -1.5612747417e-02
 3  1  1     1.5612747417e-02
 3  1  2    -7.2985180199e-02
 3  1  3     1.5612747417e-02
 3  2  1    -7.2985180199e-02
 3  2  2     1.5612747417e-02
 3  2  3    -1.5612747417e-02
 3  3  1     4.6517884825e-02
 3  3  2    -4.6517884825e-02
 3  3  3    -4.3863108848e-02

   19
0.0000000000e+00 0.0000000000e+00 0.0000000000e+00
2.5805803939e+00 2.5805803939e+00 -5.1611607878e+00
     1      1      2
 1  1  1     0.0000000000e+00
 1  1  2    -1.7164268031e-02
 1  1  3    -1.7164268031e-02
 1  2  1    -1.2644404075e-02
 1  2  2     0.0000000000e+00
 1  2  3     0.0000000000e+00
 1  3  1    -1.2644404075e-02
 1  3  2     0.0000000000e+00
 1  3  3     0.0000000000e+00
 2  1  1    -1.2644404075e-02
 2  1  2     0.0000000000e+00
 2  1  3     0.0000000000e+00
 2  2  1     0.0000000000e+00
 2  2  2     5.1849645344e-02
 2  2  3     9.8559559866e-03
 2  3  1     0.0000000000e+00
 2  3  2    -4.7646607614e-02
 2  3  3    -4.7646607614e-02
 3  1  1    -1.2644404075e-02
 3  1  2     0.0000000000e+00
 3  1  3     0.0000000000e+00
 3  2  1     0.0000000000e+00
 3  2  2    -4.7646607614e-02
 3  2  3    -4.7646607614e-02
 3  3  1     0.0000000000e+00
 3  3  2     9.8559559866e-03
 3  3  3     5.1849645344e-02

   20
0.0000000000e+00 0.0000000000e+00 0.0000000000e+00
5.5511151231e-16 2.5805803939e+00 -2.5805803939e+00
     1      1      1
 1  1  1     0.0000000000e+00
 1  1  2     1.5799044787e-01
 1  1  3    -1.5799044787e-01
 1  2  1     1.1417511282e-01
 1  2  2     0.0000000000e+00
 1  2  3     0.0000000000e+00
 1  3  1    -1.1417511282e-01
 1  3  2     0.0000000000e+00
 1  3  3     0.0000000000e+00
 2  1  1     1.1417511282e-01
 2  1  2     0.0000000000e+00
 2  1  3     0.0000000000e+00
 2  2  1     0.0000000000e+00
 2  2  2     1.4783843755e-02
 2  2  3     2.6334947231e-01
 2  3  1     0.0000000000e+00
 2  3  2     2.5622121482e-01
 2  3  3    -2.5622121482e-01
 3  1  1    -1.1417511282e-01
 3  1  2     0.0000000000e+00
 3  1  3     0.0000000000e+00
 3  2  1     0.0000000000e+00
 3  2  2     2.5622121482e-01
 3  2  3    -2.5622121482e-01
 3  3  1     0.0000000000e+00
 3  3  2    -2.6334947231e-01
 3  3  3    -1.4783843755e-02

   21
0.0000000000e+00 0.0000000000e+00 0.0000000000e+00
7.7417411817e+00 -5.1611607878e+00 -2.5805803939e+00
     1      1      2
 1  1  1     5.1849645344e-02
 1  1  2     9.8559559866e-03
 1  1  3     0.0000000000e+00
 1  2  1    -4.7646607614e-02
 1  2  2    -4.7646607614e-02
 1  2  3     0.0000000000e+00
 1  3  1     0.0000000000e+00
 1  3  2     0.0000000000e+00
 1  3  3    -1.2644404075e-02
 2  1  1    -4.7646607614e-02
 2  1  2    -4.7646607614e-02
 2  1  3     0.0000000000e+00
 2  2  1     9.8559559866e-03
 2  2  2     5.1849645344e-02
 2  2  3     0.0000000000e+00
 2  3  1     0.0000000000e+00
 2  3  2     0.0000000000e+00
 2  3  3    -1.2644404075e-02
 3  1  1     0.0000000000e+00
 3  1  2     0.0000000000e+00
 3  1  3    -1.2644404075e-02
 3  2  1     0.0000000000e+00
 3  2  2     0.0000000000e+00
 3  2  3    -1.2644404075e-02
 3  3  1    -1.7164268031e-02
 3  3  2    -1.7164268031e-02
 3  3  3     0.0000000000e+00

   22
0.0000000000e+00 0.0000000000e+00 0.0000000000e+00
-2.5805803939e+00 -2.5805803939e+00 -5.1611607878e+00
     1      1      2
 1  1  1    -5.1849645344e-02
 1  1  2     0.0000000000e+00
 1  1  3     9.8559559866e-03
 1  2  1     0.0000000000e+00
 1  2  2     1.2644404075e-02
 1  2  3     0.0000000000e+00
 1  3  1    -4.7646607614e-02
 1  3  2     0.0000000000e+00
 1  3  3     4.7646607614e-02
 2  1  1     0.0000000000e+00
 2  1  2     1.2644404075e-02
 2  1  3     0.0000000000e+00
 2  2  1     1.7164268031e-02
 2  2  2     0.0000000000e+00
 2  2  3    -1.7164268031e-02
 2  3  1     0.0000000000e+00
 2  3  2    -1.2644404075e-02
 2  3  3     0.0000000000e+00
 3  1  1    -4.7646607614e-02
 3  1  2     0.0000000000e+00
 3  1  3     4.7646607614e-02
 3  2  1     0.0000000000e+00
 3  2  2    -1.2644404075e-02
 3  2  3     0.0000000000e+00
 3  3  1    -9.8559559866e-03
 3  3  2     0.0000000000e+00
 3  3  3     5.1849645344e-02

   23
0.0000000000e+00 0.0000000000e+00 0.0000000000e+00
5.5511151231e-16 5.1611607878e+00 -5.5511151231e-16
     1      1      1
 1  1  1     0.0000000000e+00
 1  1  2     5.9022152283e-02
 1  1  3     0.0000000000e+00
 1  2  1     3.8769167160e-02
 1  2  2     0.0000000000e+00
 1  2  3     0.0000000000e+00
 1  3  1     0.0000000000e+00
 1  3  2     0.0000000000e+00
 1  3  3     0.0000000000e+00
 2  1  1     3.8769167160e-02
 2  1  2     0.0000000000e+00
 2  1  3     0.0000000000e+00
 2  2  1     0.0000000000e+00
 2  2  2    -1.2148462911e-01
 2  2  3     0.0000000000e+00
 2  3  1     0.0000000000e+00
 2  3  2     0.0000000000e+00
 2  3  3     3.8769167160e-02
 3  1  1     0.0000000000e+00
 3  1  2     0.0000000000e+00
 3  1  3     0.0000000000e+00
 3  2  1     0.0000000000e+00
 3  2  2     0.0000000000e+00
 3  2  3     3.8769167160e-02
 3  3  1     0.0000000000e+00
 3  3  2     5.9022152283e-02
 3  3  3     0.0000000000e+00

   24
0.0000000000e+00 0.0000000000e+00 0.0000000000e+00
-1.1102230246e-15 -2.5805803939e+00 -7.7417411817e+00
     1      1      2
 1  1  1     5.1849645344e-02
 1  1  2     0.0000000000e+00
 1  1  3    -9.8559559866e-03
 1  2  1     0.0000000000e+00
 1  2  2    -1.2644404075e-02
 1  2  3     0.0000000000e+00
 1  3  1     4.7646607614e-02
 1  3  2     0.0000000000e+00
 1  3  3    -4.7646607614e-02
 2  1  1     0.0000000000e+00
 2  1  2    -1.2644404075e-02
 2  1  3     0.0000000000e+00
 2  2  1    -1.7164268031e-02
 2  2  2     0.0000000000e+00
 2  2  3     1.7164268031e-02
 2  3  1     0.0000000000e+00
 2  3  2     1.2644404075e-02
 2  3  3     0.0000000000e+00
 3  1  1     4.7646607614e-02
 3  1  2     0.0000000000e+00
 3  1  3    -4.7646607614e-02
 3  2  1     0.0000000000e+00
 3  2  2     1.2644404075e-02
 3  2  3     0.0000000000e+00
 3  3  1     9.8559559866e-03
 3  3  2     0.0000000000e+00
 3  3  3    -5.1849645344e-02

   25
0.0000000000e+00 0.0000000000e+00 0.0000000000e+00
-2.5805803939e+00 -5.5511151231e-16 -2.5805803939e+00
     1      1      1
 1  1  1    -1.4783843755e-02
 1  1  2     0.0000000000e+00
 1  1  3     2.6334947231e-01
 1  2  1     0.0000000000e+00
 1  2  2    -1.1417511282e-01
 1  2  3     0.0000000000e+00
 1  3  1     2.5622121482e-01
 1  3  2     0.0000000000e+00
 1  3  3     2.5622121482e-01
 2  1  1     0.0000000000e+00
 2  1  2    -1.1417511282e-01
 2  1  3     0.0000000000e+00
 2  2  1    -1.5799044787e-01
 2  2  2     0.0000000000e+00
 2  2  3    -1.5799044787e-01
 2  3  1     0.0000000000e+00
 2  3  2    -1.1417511282e-01
 2  3  3     0.0000000000e+00
 3  1  1     2.5622121482e-01
 3  1  2     0.0000000000e+00
 3  1  3     2.5622121482e-01
 3  2  1     0.0000000000e+00
 3  2  2    -1.1417511282e-01
 3  2  3     0.0000000000e+00
 3  3  1     2.6334947231e-01
 3  3  2     0.0000000000e+00
 3  3  3    -1.4783843755e-02

   26
0.0000000000e+00 0.0000000000e+00 0.0000000000e+00
5.1611607878e+00 -7.7417411817e+00 -2.5805803939e+00
     1      1      2
 1  1  1    -5.1849645344e-02
 1  1  2    -9.8559559866e-03
 1  1  3     0.0000000000e+00
 1  2  1     4.7646607614e-02
 1  2  2     4.7646607614e-02
 1  2  3     0.0000000000e+00
 1  3  1     0.0000000000e+00
 1  3  2     0.0000000000e+00
 1  3  3     1.2644404075e-02
 2  1  1     4.7646607614e-02
 2  1  2     4.7646607614e-02
 2  1  3     0.0000000000e+00
 2  2  1    -9.8559559866e-03
 2  2  2    -5.1849645344e-02
 2  2  3     0.0000000000e+00
 2  3  1     0.0000000000e+00
 2  3  2     0.0000000000e+00
 2  3  3     1.2644404075e-02
 3  1  1     0.0000000000e+00
 3  1  2     0.0000000000e+00
 3  1  3     1.2644404075e-02
 3  2  1     0.0000000000e+00
 3  2  2     0.0000000000e+00
 3  2  3     1.2644404075e-02
 3  3  1     1.7164268031e-02
 3  3  2     1.7164268031e-02
 3  3  3     0.0000000000e+00

   27
0.0000000000e+00 0.0000000000e+00 0.0000000000e+00
-5.1611607878e+00 -5.5511151231e-16 -5.5511151231e-16
     1      1      1
 1  1  1     1.2148462911e-01
 1  1  2     0.0000000000e+00
 1  1  3     0.0000000000e+00
 1  2  1     0.0000000000e+00
 1  2  2    -3.8769167160e-02
 1  2  3     0.0000000000e+00
 1  3  1     0.0000000000e+00
 1  3  2     0.0000000000e+00
 1  3  3    -3.8769167160e-02
 2  1  1     0.0000000000e+00
 2  1  2    -3.8769167160e-02
 2  1  3     0.0000000000e+00
 2  2  1    -5.9022152283e-02
 2  2  2     0.0000000000e+00
 2  2  3     0.0000000000e+00
 2  3  1     0.0000000000e+00
 2  3  2     0.0000000000e+00
 2  3  3     0.0000000000e+00
 3  1  1     0.0000000000e+00
 3  1  2     0.0000000000e+00
 3  1  3    -3.8769167160e-02
 3  2  1     0.0000000000e+00
 3  2  2     0.0000000000e+00
 3  2  3     0.0000000000e+00
 3  3  1    -5.9022152283e-02
 3  3  2     0.0000000000e+00
 3  3  3     0.0000000000e+00

   28
0.0000000000e+00 0.0000000000e+00 0.0000000000e+00
2.5805803939e+00 1.1102230246e-15 -7.7417411817e+00
     1      1      2
 1  1  1     0.0000000000e+00
 1  1  2     1.7164268031e-02
 1  1  3     1.7164268031e-02
 1  2  1     1.2644404075e-02
 1  2  2     0.0000000000e+00
 1  2  3     0.0000000000e+00
 1  3  1     1.2644404075e-02
 1  3  2     0.0000000000e+00
 1  3  3     0.0000000000e+00
 2  1  1     1.2644404075e-02
 2  1  2     0.0000000000e+00
 2  1  3     0.0000000000e+00
 2  2  1     0.0000000000e+00
 2  2  2    -5.1849645344e-02
 2  2  3    -9.8559559866e-03
 2  3  1     0.0000000000e+00
 2  3  2     4.7646607614e-02
 2  3  3     4.7646607614e-02
 3  1  1     1.2644404075e-02
 3  1  2     0.0000000000e+00
 3  1  3     0.0000000000e+00
 3  2  1     0.0000000000e+00
 3  2  2     4.7646607614e-02
 3  2  3     4.7646607614e-02
 3  3  1     0.0000000000e+00
 3  3  2    -9.8559559866e-03
 3  3  3    -5.1849645344e-02

   29
0.0000000000e+00 0.0000000000e+00 0.0000000000e+00
5.5511151231e-16 -5.5511151231e-16 -5.1611607878e+00
     1      1      1
 1  1  1     0.0000000000e+00
 1  1  2     0.0000000000e+00
 1  1  3    -5.9022152283e-02
 1  2  1     0.0000000000e+00
 1  2  2     0.0000000000e+00
 1  2  3     0.0000000000e+00
 1  3  1    -3.8769167160e-02
 1  3  2     0.0000000000e+00
 1  3  3     0.0000000000e+00
 2  1  1     0.0000000000e+00
 2  1  2     0.0000000000e+00
 2  1  3     0.0000000000e+00
 2  2  1     0.0000000000e+00
 2  2  2     0.0000000000e+00
 2  2  3    -5.9022152283e-02
 2  3  1     0.0000000000e+00
 2  3  2    -3.8769167160e-02
 2  3  3     0.0000000000e+00
 3  1  1    -3.8769167160e-02
 3  1  2     0.0000000000e+00
 3  1  3     0.0000000000e+00
 3  2  1     0.0000000000e+00
 3  2  2    -3.8769167160e-02
 3  2  3     0.0000000000e+00
 3  3  1     0.0000000000e+00
 3  3  2     0.0000000000e+00
 3  3  3     1.2148462911e-01

   30
0.0000000000e+00 0.0000000000e+00 0.0000000000e+00
-1.1102230246e-15 1.1102230246e-15 -5.1611607878e+00
     1      1      2
 1  1  1     4.3863108848e-02
 1  1  2     4.6517884825e-02
 1  1  3    -4.6517884825e-02
 1  2  1     1.5612747417e-02
 1  2  2    -1.5612747417e-02
 1  2  3     7.2985180199e-02
 1  3  1    -1.5612747417e-02
 1  3  2     7.2985180199e-02
 1  3  3    -1.5612747417e-02
 2  1  1     1.5612747417e-02
 2  1  2    -1.5612747417e-02
 2  1  3     7.2985180199e-02
 2  2  1    -4.6517884825e-02
 2  2  2    -4.3863108848e-02
 2  2  3    -4.6517884825e-02
 2  3  1     7.2985180199e-02
 2  3  2    -1.5612747417e-02
 2  3  3     1.5612747417e-02
 3  1  1    -1.5612747417e-02
 3  1  2     7.2985180199e-02
 3  1  3    -1.5612747417e-02
 3  2  1     7.2985180199e-02
 3  2  2    -1.5612747417e-02
 3  2  3     1.5612747417e-02
 3  3  1    -4.6517884825e-02
 3  3  2     4.6517884825e-02
 3  3  3     4.3863108848e-02

   31
0.0000000000e+00 0.0000000000e+00 0.0000000000e+00
2.5805803939e+00 -2.5805803939e+00 0.0000000000e+00
     1      1      1
 1  1  1     1.4783843755e-02
 1  1  2     2.6334947231e-01
 1  1  3     0.0000000000e+00
 1  2  1     2.5622121482e-01
 1  2  2    -2.5622121482e-01
 1  2  3     0.0000000000e+00
 1  3  1     0.0000000000e+00
 1  3  2     0.0000000000e+00
 1  3  3     1.1417511282e-01
 2  1  1     2.5622121482e-01
 2  1  2    -2.5622121482e-01
 2  1  3     0.0000000000e+00
 2  2  1    -2.6334947231e-01
 2  2  2    -1.4783843755e-02
 2  2  3     0.0000000000e+00
 2  3  1     0.0000000000e+00
 2  3  2     0.0000000000e+00
 2  3  3    -1.1417511282e-01
 3  1  1     0.0000000000e+00
 3  1  2     0.0000000000e+00
 3  1  3     1.1417511282e-01
 3  2  1     0.0000000000e+00
 3  2  2     0.0000000000e+00
 3  2  3    -1.1417511282e-01
 3  3  1     1.5799044787e-01
 3  3  2    -1.5799044787e-01
 3  3  3     0.0000000000e+00

   32
0.0000000000e+00 0.0000000000e+00 0.0000000000e+00
2.5805803939e+00 -2.5805803939e+00 0.0000000000e+00
     1      1      2
 1  1  1     0.0000000000e+00
 1  1  2     0.0000000000e+00
 1  1  3     2.5404360235e-01
 1  2  1     0.0000000000e+00
 1  2  2     0.0000000000e+00
 1  2  3     0.0000000000e+00
 1  3  1     3.0124240773e-01
 1  3  2     0.0000000000e+00
 1  3  3     0.0000000000e+00
 2  1  1     0.0000000000e+00
 2  1  2     0.0000000000e+00
 2  1  3     0.0000000000e+00
 2  2  1     0.0000000000e+00
 2  2  2     0.0000000000e+00
 2  2  3     2.5404360235e-01
 2  3  1     0.0000000000e+00
 2  3  2     3.0124240773e-01
 2  3  3     0.0000000000e+00
 3  1  1     3.0124240773e-01
 3  1  2     0.0000000000e+00
 3  1  3     0.0000000000e+00
 3  2  1     0.0000000000e+00