   0.15024E+01   0.74080E-03   0.18741E-04
   0.30047E+01   0.26495E-02   0.63750E-04
   0.45071E+01   0.78244E-02   0.17210E-03
   0.60095E+01   0.14931E-01   0.28968E-03
   0.75119E+01   0.26978E-01   0.44419E-03
   0.90142E+01   0.46053E-01   0.60407E-03
   0.10517E+02   0.77215E-01   0.72084E-03
   0.12019E+02   0.13807E+00   0.75485E-03
   0.13521E+02   0.30002E+00   0.67550E-03
   0.15024E+02   0.32902E+00   0.61940E-03
   0.16526E+02   0.19494E+00   0.40830E-03
   0.18028E+02   0.14658E+00   0.37662E-03
   0.19531E+02   0.13612E+00   0.42154E-03
   0.21033E+02   0.77342E-01   0.52650E-03
   0.22536E+02   0.32328E+00   0.11614E-02
   0.24038E+02   0.10038E+00   0.29872E-03
   0.25540E+02   0.53949E-01   0.11613E-03
   0.27043E+02   0.94708E-02   0.16139E-05
   0.28545E+02   0.00000E+00   0.00000E+00
   0.30047E+02   0.00000E+00   0.00000E+00
   0.31550E+02   0.00000E+00   0.00000E+00
   0.33052E+02   0.00000E+00   0.00000E+00
   0.34555E+02   0.00000E+00   0.00000E+00
   0.36057E+02   0.00000E+00   0.00000E+00
   0.37559E+02   0.00000E+00   0.00000E+00
   0.39062E+02   0.00000E+00   0.00000E+00
   0.40564E+02   0.00000E+00   0.00000E+00
   0.42066E+02   0.00000E+00   0.00000E+00
   0.43569E+02   0.00000E+00   0.00000E+00
   0.45071E+02   0.00000E+00   0.00000E+00
   0.46574E+02   0.00000E+00   0.00000E+00
   0.48076E+02   0.00000E+00   0.00000E+00
   0.49578E+02   0.00000E+00   0.00000E+00
   0.51081E+02   0.00000E+00   0.00000E+00
   0.52583E+02   0.00000E+00   0.00000E+00
   0.54085E+02   0.00000E+00   0.00000E+00
   0.55588E+02   0.00000E+00   0.00000E+00
   0.57090E+02   0.00000E+00   0.00000E+00
   0.58592E+02   0.00000E+00   0.00000E+00
   0.60095E+02   0.00000E+00   0.00000E+00
   0.61597E+02   0.00000E+00   0.00000E+00
   0.63100E+02   0.00000E+00   0.00000E+00
   0.64602E+02   0.00000E+00   0.00000E+00
   0.66104E+02   0.00000E+00   0.00000E+00
   0.67607E+02   0.00000E+00   0.00000E+00
   0.69109E+02   0.26916E-04   0.10512E-02
   0.70611E+02   0.23609E-03   0.11202E-01
   0.72114E+02   0.31772E-03   0.17972E-01
   0.73616E+02   0.37723E-03   0.25696E-01
   0.75119E+02   0.39315E-03   0.33061E-01
   0.76621E+02   0.40728E-03   0.44625E-01
   0.78123E+02   0.38152E-03   0.56309E-01
   0.79626E+02   0.35038E-03   0.74568E-01
   0.81128E+02   0.30691E-03   0.10990E+00
   0.82630E+02   0.24575E-03   0.13800E+00
   0.84133E+02   0.20916E-03   0.13598E+00
   0.85635E+02   0.19597E-03   0.13305E+00
   0.87138E+02   0.12937E-03   0.98039E-01
   0.88640E+02   0.85929E-04   0.75826E-01
   0.90142E+02   0.62678E-04   0.63551E-01
   0.91645E+02   0.47698E-04   0.55277E-01
   0.93147E+02   0.37654E-04   0.49316E-01
   0.94649E+02   0.30284E-04   0.43955E-01
   0.96152E+02   0.24341E-04   0.38102E-01
   0.97654E+02   0.20166E-04   0.33500E-01
   0.99157E+02   0.17199E-04   0.28338E-01
   0.10066E+03   0.14398E-04   0.23037E-01
   0.10216E+03   0.10058E-04   0.14604E-01
   0.10366E+03   0.71326E-05   0.90073E-02
   0.10517E+03   0.59262E-05   0.66163E-02
   0.10667E+03   0.76550E-05   0.69803E-02
   0.10817E+03   0.15409E-04   0.11555E-01
   0.10967E+03   0.27874E-04   0.17523E-01
   0.11118E+03   0.42818E-04   0.22599E-01
   0.11268E+03   0.62606E-04   0.27999E-01
   0.11418E+03   0.76122E-04   0.30550E-01
   0.11568E+03   0.70699E-04   0.27970E-01
   0.11718E+03   0.75625E-04   0.28552E-01
   0.11869E+03   0.83382E-04   0.29027E-01
   0.12019E+03   0.94700E-04   0.30328E-01
   0.12169E+03   0.10810E-03   0.32012E-01
   0.12319E+03   0.12442E-03   0.32921E-01
   0.12470E+03   0.14587E-03   0.34507E-01
   0.12620E+03   0.17229E-03   0.36920E-01
   0.12770E+03   0.20701E-03   0.39493E-01
   0.12920E+03   0.25259E-03   0.42038E-01
   0.13071E+03   0.31049E-03   0.44927E-01
   0.13221E+03   0.39360E-03   0.49032E-01
   0.13371E+03   0.50111E-03   0.51634E-01
   0.13521E+03   0.65638E-03   0.54736E-01
   0.13672E+03   0.43597E-06   0.19366E-04
   0.13822E+03   0.00000E+00   0.00000E+00
   0.13972E+03   0.00000E+00   0.00000E+00
   0.14122E+03   0.00000E+00   0.00000E+00
   0.14273E+03   0.00000E+00   0.00000E+00
   0.14423E+03   0.00000E+00   0.00000E+00
   0.14573E+03   0.00000E+00   0.00000E+00
   0.14723E+03   0.00000E+00   0.00000E+00
   0.14873E+03   0.00000E+00   0.00000E+00
   0.15024E+03   0.00000E+00   0.00000E+00
