  724

    1
0.0000000000e+00 0.0000000000e+00 0.0000000000e+00
0.0000000000e+00 0.0000000000e+00 0.0000000000e+00
     1      1      1
 1  1  1     0.0000000000e+00
 1  1  2    -1.5862393322e+02
 1  1  3    -1.9421973081e-01
 1  2  1    -1.5862393322e+02
 1  2  2     0.0000000000e+00
 1  2  3     0.0000000000e+00
 1  3  1    -1.9421973081e-01
 1  3  2     0.0000000000e+00
 1  3  3     0.0000000000e+00
 2  1  1    -1.5862393322e+02
 2  1  2     0.0000000000e+00
 2  1  3     0.0000000000e+00
 2  2  1     0.0000000000e+00
 2  2  2     1.5862393322e+02
 2  2  3    -1.9421973081e-01
 2  3  1     0.0000000000e+00
 2  3  2    -1.9421973081e-01
 2  3  3     0.0000000000e+00
 3  1  1    -1.9421973081e-01
 3  1  2     0.0000000000e+00
 3  1  3     0.0000000000e+00
 3  2  1     0.0000000000e+00
 3  2  2    -1.9421973081e-01
 3  2  3     0.0000000000e+00
 3  3  1     0.0000000000e+00
 3  3  2     0.0000000000e+00
 3  3  3     1.1592738951e+00

    2
0.0000000000e+00 0.0000000000e+00 0.0000000000e+00
0.0000000000e+00 0.0000000000e+00 0.0000000000e+00
     1      1      2
 1  1  1     0.0000000000e+00
 1  1  2     1.5426613271e-02
 1  1  3     2.2388908296e-01
 1  2  1     1.5426613271e-02
 1  2  2     0.0000000000e+00
 1  2  3     0.0000000000e+00
 1  3  1     7.7629140251e-02
 1  3  2     0.0000000000e+00
 1  3  3     0.0000000000e+00
 2  1  1     1.5426613271e-02
 2  1  2     0.0000000000e+00
 2  1  3     0.0000000000e+00
 2  2  1     0.0000000000e+00
 2  2  2    -1.5426613271e-02
 2  2  3     2.2388908296e-01
 2  3  1     0.0000000000e+00
 2  3  2     7.7629140251e-02
 2  3  3     0.0000000000e+00
 3  1  1     7.7629140251e-02
 3  1  2     0.0000000000e+00
 3  1  3     0.0000000000e+00
 3  2  1     0.0000000000e+00
 3  2  2     7.7629140251e-02
 3  2  3     0.0000000000e+00
 3  3  1     0.0000000000e+00
 3  3  2     0.0000000000e+00
 3  3  3    -5.0619747641e-01

    3
0.0000000000e+00 0.0000000000e+00 0.0000000000e+00
0.0000000000e+00 0.0000000000e+00 0.0000000000e+00
     1      1      3
 1  1  1     0.0000000000e+00
 1  1  2     7.7870494018e+00
 1  1  3    -2.8195619812e-02
 1  2  1     1.0586687013e+01
 1  2  2     0.0000000000e+00
 1  2  3     0.0000000000e+00
 1  3  1    -5.4848150499e-02
 1  3  2     0.0000000000e+00
 1  3  3     0.0000000000e+00
 2  1  1     1.0586687013e+01
 2  1  2     0.0000000000e+00
 2  1  3     0.0000000000e+00
 2  2  1     0.0000000000e+00
 2  2  2    -1.8180489053e+02
 2  2  3    -6.1997820151e-02
 2  3  1     0.0000000000e+00
 2  3  2     1.0516159394e-01
 2  3  3     1.3152417138e+01
 3  1  1    -5.4848150499e-02
 3  1  2     0.0000000000e+00
 3  1  3     0.0000000000e+00
 3  2  1     0.0000000000e+00
 3  2  2     1.0516159394e-01
 3  2  3     1.3152417138e+01
 3  3  1     0.0000000000e+00
 3  3  2     1.1797330212e+01
 3  3  3     1.2573888141e-01

    4
0.0000000000e+00 0.0000000000e+00 0.0000000000e+00
0.0000000000e+00 0.0000000000e+00 0.0000000000e+00
     1      1      4
 1  1  1     4.3446239866e-03
 1  1  2    -9.9545230695e-04
 1  1  3     3.8621836934e-02
 1  2  1    -5.5896670044e-03
 1  2  2    -1.2042630968e-03
 1  2  3    -1.2857698991e-02
 1  3  1    -5.3806037588e-02
 1  3  2    -2.3778900903e-02
 1  3  3    -9.0661407361e-02
 2  1  1    -5.5896670044e-03
 2  1  2    -1.2042630968e-03
 2  1  3    -1.2857698991e-02
 2  2  1     6.7531501801e-03
 2  2  2     7.4027552095e-03
 2  2  3     5.3468628881e-02
 2  3  1    -2.3778900903e-02
 2  3  2    -2.6348527913e-02
 2  3  3    -5.2343387945e-02
 3  1  1    -5.3806037588e-02
 3  1  2    -2.3778900903e-02
 3  1  3    -9.0661407361e-02
 3  2  1    -2.3778900903e-02
 3  2  2    -2.6348527913e-02
 3  2  3    -5.2343387945e-02
 3  3  1    -2.2223565543e-01
 3  3  2    -1.2830781549e-01
 3  3  3    -2.5130010557e-01

    5
0.0000000000e+00 0.0000000000e+00 0.0000000000e+00
2.4657679783e+00 0.0000000000e+00 0.0000000000e+00
     1      1      1
 1  1  1    -1.1289071646e+01
 1  1  2    -1.2360388797e+00
 1  1  3    -3.6431838013e-02
 1  2  1     1.1058300663e+00
 1  2  2     2.4455581132e+00
 1  2  3     2.2400704648e-02
 1  3  1     4.1699739838e-02
 1  3  2     6.2078605287e-02
 1  3  3     3.0324857673e+00
 2  1  1     1.1058300663e+00
 2  1  2     2.4455581132e+00
 2  1  3     2.2400704648e-02
 2  2  1     2.4761231223e+00
 2  2  2     1.1358005261e+00
 2  2  3     2.8075991307e-02
 2  3  1     5.1758284537e-03
 2  3  2     1.1444174602e-02
 2  3  3     4.0068869558e-01
 3  1  1     4.1699739838e-02
 3  1  2     6.2078605287e-02
 3  1  3     3.0324857673e+00
 3  2  1     5.1758284537e-03
 3  2  2     1.1444174602e-02
 3  2  3     4.0068869558e-01
 3  3  1    -4.2934802898e-01
 3  3  2     5.6620469546e-01
 3  3  3    -2.2228951399e-02

    6
0.0000000000e+00 0.0000000000e+00 0.0000000000e+00
2.4657679783e+00 0.0000000000e+00 0.0000000000e+00
     1      1      3
 1  1  1    -1.9586911135e+00
 1  1  2     1.4211348782e+00
 1  1  3    -2.3810537648e-02
 1  2  1    -8.8115646778e-01
 1  2  2    -1.9821255662e+00
 1  2  3    -3.6942183958e-02
 1  3  1     7.6040155508e-03
 1  3  2     1.2068629614e-02
 1  3  3     9.6415584925e-02
 2  1  1    -8.8115646778e-01
 2  1  2    -1.9821255662e+00
 2  1  3    -3.6942183958e-02
 2  2  1     2.0055600189e+00
 2  2  2    -1.3940751031e+00
 2  2  3     1.8846622057e-02
 2  3  1     1.2068629614e-02
 2  3  2    -6.3316375616e-03
 2  3  3     5.5665563910e-02
 3  1  1     7.6040155508e-03
 3  1  2     1.2068629614e-02
 3  1  3     9.6415584925e-02
 3  2  1     1.2068629614e-02
 3  2  2    -6.3316375616e-03
 3  2  3     5.5665563910e-02
 3  3  1    -5.8480278246e-02
 3  3  2    -3.3763604388e-02
 3  3  3    -4.7673479748e-02

    7
0.0000000000e+00 0.0000000000e+00 0.0000000000e+00
-2.4657679783e+00 0.0000000000e+00 0.0000000000e+00
     1      1      1
 1  1  1     1.1289071646e+01
 1  1  2    -1.2360388797e+00
 1  1  3    -3.6431838013e-02
 1  2  1     1.1058300663e+00
 1  2  2    -2.4455581132e+00
 1  2  3    -2.2400704648e-02
 1  3  1     4.1699739838e-02
 1  3  2    -6.2078605287e-02
 1  3  3    -3.0324857673e+00
 2  1  1     1.1058300663e+00
 2  1  2    -2.4455581132e+00
 2  1  3    -2.2400704648e-02
 2  2  1    -2.4761231223e+00
 2  2  2     1.1358005261e+00
 2  2  3     2.8075991307e-02
 2  3  1    -5.1758284537e-03
 2  3  2     1.1444174602e-02
 2  3  3     4.0068869558e-01
 3  1  1     4.1699739838e-02
 3  1  2    -6.2078605287e-02
 3  1  3    -3.0324857673e+00
 3  2  1    -5.1758284537e-03
 3  2  2     1.1444174602e-02
 3  2  3     4.0068869558e-01
 3  3  1     4.2934802898e-01
 3  3  2     5.6620469546e-01
 3  3  3    -2.2228951399e-02

    8
0.0000000000e+00 0.0000000000e+00 0.0000000000e+00
-2.4657679783e+00 0.0000000000e+00 0.0000000000e+00
     1      1      3
 1  1  1     1.9586911135e+00
 1  1  2     1.4211348782e+00
 1  1  3    -2.3810537648e-02
 1  2  1    -8.8115646778e-01
 1  2  2     1.9821255662e+00
 1  2  3     3.6942183958e-02
 1  3  1     7.6040155508e-03
 1  3  2    -1.2068629614e-02
 1  3  3    -9.6415584925e-02
 2  1  1    -8.8115646778e-01
 2  1  2     1.9821255662e+00
 2  1  3     3.6942183958e-02
 2  2  1    -2.0055600189e+00
 2  2  2    -1.3940751031e+00
 2  2  3     1.8846622057e-02
 2  3  1    -1.2068629614e-02
 2  3  2    -6.3316375616e-03
 2  3  3     5.5665563910e-02
 3  1  1     7.6040155508e-03
 3  1  2    -1.2068629614e-02
 3  1  3    -9.6415584925e-02
 3  2  1    -1.2068629614e-02
 3  2  2    -6.3316375616e-03
 3  2  3     5.5665563910e-02
 3  3  1     5.8480278246e-02
 3  3  2    -3.3763604388e-02
 3  3  3    -4.7673479748e-02

    9
0.0000000000e+00 0.0000000000e+00 0.0000000000e+00
-2.4657679783e+00 0.0000000000e+00 0.0000000000e+00
     1      1      4
 1  1  1    -4.3446239866e-03
 1  1  2    -9.9545230695e-04
 1  1  3     3.8621836934e-02
 1  2  1    -5.5896670044e-03
 1  2  2     1.2042630968e-03
 1  2  3     1.2857698991e-02
 1  3  1    -5.3806037588e-02
 1  3  2     2.3778900903e-02
 1  3  3     9.0661407361e-02
 2  1  1    -5.5896670044e-03
 2  1  2     1.2042630968e-03
 2  1  3     1.2857698991e-02
 2  2  1    -6.7531501801e-03
 2  2  2     7.4027552095e-03
 2  2  3     5.3468628881e-02
 2  3  1     2.3778900903e-02
 2  3  2    -2.6348527913e-02
 2  3  3    -5.2343387945e-02
 3  1  1    -5.3806037588e-02
 3  1  2     2.3778900903e-02
 3  1  3     9.0661407361e-02
 3  2  1     2.3778900903e-02
 3  2  2    -2.6348527913e-02
 3  2  3    -5.2343387945e-02
 3  3  1     2.2223565543e-01
 3  3  2    -1.2830781549e-01
 3  3  3    -2.5130010557e-01

   10
0.0000000000e+00 0.0000000000e+00 0.0000000000e+00
-1.2328839892e+00 2.1354177091e+00 0.0000000000e+00
     1      1      1
 1  1  1    -2.3005330793e+00
 1  1  2    -1.3368720765e+00
 1  1  3     3.1348613264e-02
 1  2  1    -2.5342766237e+00
 1  2  2     4.7809808069e+00
 1  2  3     1.6732357143e-02
 1  3  1     4.8130089979e-02
 1  3  2    -1.4632640685e-03
 1  3  3    -1.8632494730e+00
 2  1  1    -2.5342766237e+00
 2  1  2     4.7809808069e+00
 2  1  3     1.6732357143e-02
 2  2  1     6.7938163019e+00
 2  2  2    -6.2452460507e+00
 2  2  3    -3.9704459970e-02
 2  3  1    -5.8366040901e-02
 2  3  2     5.0138244606e-03
 2  3  3     2.4258653633e+00
 3  1  1     4.8130089979e-02
 3  1  2    -1.4632640685e-03
 3  1  3    -1.8632494730e+00
 3  2  1    -5.8366040901e-02
 3  2  2     5.0138244606e-03
 3  2  3     2.4258653633e+00
 3  3  1    -2.7567363552e-01
 3  3  2    -6.5492864789e-01
 3  3  3    -2.2228951399e-02

   11
0.0000000000e+00 0.0000000000e+00 0.0000000000e+00
1.2328839892e+00 2.1354177091e+00 0.0000000000e+00
     1      1      1
 1  1  1     2.3005330793e+00
 1  1  2    -1.3368720765e+00
 1  1  3     3.1348613264e-02
 1  2  1    -2.5342766237e+00
 1  2  2    -4.7809808069e+00
 1  2  3    -1.6732357143e-02
 1  3  1     4.8130089979e-02
 1  3  2     1.4632640685e-03
 1  3  3     1.8632494730e+00
 2  1  1    -2.5342766237e+00
 2  1  2    -4.7809808069e+00
 2  1  3    -1.6732357143e-02
 2  2  1    -6.7938163019e+00
 2  2  2    -6.2452460507e+00
 2  2  3    -3.9704459970e-02
 2  3  1     5.8366040901e-02
 2  3  2     5.0138244606e-03
 2  3  3     2.4258653633e+00
 3  1  1     4.8130089979e-02
 3  1  2     1.4632640685e-03
 3  1  3     1.8632494730e+00
 3  2  1     5.8366040901e-02
 3  2  2     5.0138244606e-03
 3  2  3     2.4258653633e+00
 3  3  1     2.7567363552e-01
 3  3  2    -6.5492864789e-01
 3  3  3    -2.2228951399e-02

   12
0.0000000000e+00 0.0000000000e+00 0.0000000000e+00
0.0000000000e+00 -4.2708354182e+00 0.0000000000e+00
     1      1      3
 1  1  1     0.0000000000e+00
 1  1  2    -2.0525969721e+00
 1  1  3     4.0175201909e-02
 1  2  1     2.5519857199e+00
 1  2  2     0.0000000000e+00
 1  2  3     0.0000000000e+00
 1  3  1    -1.3299464118e-02
 1  3  2     0.0000000000e+00
 1  3  3     0.0000000000e+00
 2  1  1     2.5519857199e+00
 2  1  2     0.0000000000e+00
 2  1  3     0.0000000000e+00
 2  2  1     0.0000000000e+00
 2  2  2     1.9984774219e+00
 2  2  3    -4.5139117500e-02
 2  3  1     0.0000000000e+00
 2  3  2     1.4571842107e-02
 2  3  3    -1.1133112782e-01
 3  1  1    -1.3299464118e-02
 3  1  2     0.0000000000e+00
 3  1  3     0.0000000000e+00
 3  2  1     0.0000000000e+00
 3  2  2     1.4571842107e-02
 3  2  3    -1.1133112782e-01
 3  3  1     0.0000000000e+00
 3  3  2     6.7527208776e-02
 3  3  3    -4.7673479748e-02

   13
0.0000000000e+00 0.0000000000e+00 0.0000000000e+00
1.2328839892e+00 -2.1354177091e+00 0.0000000000e+00
     1      1      1
 1  1  1     4.0262852074e-01
 1  1  2     2.4527765012e+00
 1  1  3    -7.4505453107e-03
 1  2  1     1.3083121025e+00
 1  2  2    -6.7656943261e+00
 1  2  3     3.9133061791e-02
 1  3  1    -1.0113958157e-02
 1  3  2    -2.4738824031e-02
 1  3  3     1.1692362943e+00
 2  1  1     1.3083121025e+00
 2  1  2    -6.7656943261e+00
 2  1  3     3.9133061791e-02
 2  2  1    -4.7222938220e+00
 2  2  2     5.2295799795e+00
 2  2  3    -9.0530139543e-04
 2  3  1     3.2163952802e-02
 2  3  2     6.3257872597e-02
 2  3  3    -2.8265540589e+00
 3  1  1    -1.0113958157e-02
 3  1  2    -2.4738824031e-02
 3  1  3     1.1692362943e+00
 3  2  1     3.2163952802e-02
 3  2  2     6.3257872597e-02
 3  2  3    -2.8265540589e+00
 3  3  1    -7.0502166450e-01
 3  3  2     8.8723952435e-02
 3  3  3    -2.2228951399e-02

   14
0.0000000000e+00 0.0000000000e+00 0.0000000000e+00
1.2328839892e+00 -2.1354177091e+00 0.0000000000e+00
     1      1      3
 1  1  1    -1.1181562470e+02
 1  1  2     7.5143468034e+01
 1  1  3    -5.3547270067e-02
 1  2  1     7.3743649229e+01
 1  2  2    -3.6463689137e+01
 1  2  3     1.4636782099e-02
 1  3  1     6.5159157833e-02
 1  3  2    -6.9286251770e-02
 1  3  3     1.1390327362e+01
 2  1  1     7.3743649229e+01
 2  1  2    -3.6463689137e+01
 2  1  3     1.4636782099e-02
 2  2  1    -3.8888246429e+01
 2  2  2     1.1865452531e+01
 2  2  3    -3.6646169897e-02
 2  3  1    -6.9286251770e-02
 2  3  2    -1.4845714388e-02
 2  3  3    -6.5762085689e+00
 3  1  1     6.5159157833e-02
 3  1  2    -6.9286251770e-02
 3  1  3     1.1390327362e+01
 3  2  1    -6.9286251770e-02
 3  2  2    -1.4845714388e-02
 3  2  3    -6.5762085689e+00
 3  3  1     1.0216787660e+01
 3  3  2    -5.8986651060e+00
 3  3  3     1.2573888141e-01

   15
0.0000000000e+00 0.0000000000e+00 0.0000000000e+00
-1.2328839892e+00 -2.1354177091e+00 0.0000000000e+00
     1      1      1
 1  1  1    -4.0262852074e-01
 1  1  2     2.4527765012e+00
 1  1  3    -7.4505453107e-03
 1  2  1     1.3083121025e+00
 1  2  2     6.7656943261e+00
 1  2  3    -3.9133061791e-02
 1  3  1    -1.0113958157e-02
 1  3  2     2.4738824031e-02
 1  3  3    -1.1692362943e+00
 2  1  1     1.3083121025e+00
 2  1  2     6.7656943261e+00
 2  1  3    -3.9133061791e-02
 2  2  1     4.7222938220e+00
 2  2  2     5.2295799795e+00
 2  2  3    -9.0530139543e-04
 2  3  1    -3.2163952802e-02
 2  3  2     6.3257872597e-02
 2  3  3    -2.8265540589e+00
 3  1  1    -1.0113958157e-02
 3  1  2     2.4738824031e-02
 3  1  3    -1.1692362943e+00
 3  2  1    -3.2163952802e-02
 3  2  2     6.3257872597e-02
 3  2  3    -2.8265540589e+00
 3  3  1     7.0502166450e-01
 3  3  2     8.8723952435e-02
 3  3  3    -2.2228951399e-02

   16
0.0000000000e+00 0.0000000000e+00 0.0000000000e+00
-1.2328839892e+00 -2.1354177091e+00 0.0000000000e+00
     1      1      3
 1  1  1     1.1181562470e+02
 1  1  2     7.5143468034e+01
 1  1  3    -5.3547270067e-02
 1  2  1     7.3743649229e+01
 1  2  2     3.6463689137e+01
 1  2  3    -1.4636782099e-02
 1  3  1     6.5159157833e-02
 1  3  2     6.9286251770e-02
 1  3  3    -1.1390327362e+01
 2  1  1     7.3743649229e+01
 2  1  2     3.6463689137e+01
 2  1  3    -1.4636782099e-02
 2  2  1     3.8888246429e+01
 2  2  2     1.1865452531e+01
 2  2  3    -3.6646169897e-02
 2  3  1     6.9286251770e-02
 2  3  2    -1.4845714388e-02
 2  3  3    -6.5762085689e+00
 3  1  1     6.5159157833e-02
 3  1  2     6.9286251770e-02
 3  1  3    -1.1390327362e+01
 3  2  1     6.9286251770e-02
 3  2  2    -1.4845714388e-02
 3  2  3    -6.5762085689e+00
 3  3  1    -1.0216787660e+01
 3  3  2    -5.8986651060e+00
 3  3  3     1.2573888141e-01

   17
0.0000000000e+00 0.0000000000e+00 0.0000000000e+00
-1.2328839892e+00 -2.1354177091e+00 0.0000000000e+00
     1      1      4
 1  1  1     0.0000000000e+00
 1  1  2    -1.2692251530e-02
 1  1  3     6.0892024854e-02
 1  2  1    -3.5038221351e-03
 1  2  2     0.0000000000e+00
 1  2  3     0.0000000000e+00
 1  3  1    -1.2619773075e-02
 1  3  2     0.0000000000e+00
 1  3  3     0.0000000000e+00
 2  1  1    -3.5038221351e-03
 2  1  2     0.0000000000e+00
 2  1  3     0.0000000000e+00
 2  2  1     0.0000000000e+00
 2  2  2    -1.2235427506e-04
 2  2  3     3.1198440960e-02
 2  3  1     0.0000000000e+00
 2  3  2    -6.7534792426e-02
 2  3  3     1.0468677589e-01
 3  1  1    -1.2619773075e-02
 3  1  2     0.0000000000e+00
 3  1  3     0.0000000000e+00
 3  2  1     0.0000000000e+00
 3  2  2    -6.7534792426e-02
 3  2  3     1.0468677589e-01
 3  3  1     0.0000000000e+00
 3  3  2     2.5661563097e-01
 3  3  3    -2.5130010557e-01

   18
0.0000000000e+00 0.0000000000e+00 0.0000000000e+00
0.0000000000e+00 0.0000000000e+00 0.0000000000e+00
     1      2      1
 1  1  1     0.0000000000e+00
 1  1  2     1.5426613271e-02
 1  1  3     7.7629140251e-02
 1  2  1     1.5426613271e-02
 1  2  2     0.0000000000e+00
 1  2  3     0.0000000000e+00
 1  3  1     2.2388908296e-01
 1  3  2     0.0000000000e+00
 1  3  3     0.0000000000e+00
 2  1  1     1.5426613271e-02
 2  1  2     0.0000000000e+00
 2  1  3     0.0000000000e+00
 2  2  1     0.0000000000e+00
 2  2  2    -1.5426613271e-02
 2  2  3     7.7629140251e-02
 2  3  1     0.0000000000e+00
 2  3  2     2.2388908296e-01
 2  3  3     0.0000000000e+00
 3  1  1     7.7629140251e-02
 3  1  2     0.0000000000e+00
 3  1  3     0.0000000000e+00
 3  2  1     0.0000000000e+00
 3  2  2     7.7629140251e-02
 3  2  3     0.0000000000e+00
 3  3  1     0.0000000000e+00
 3  3  2     0.0000000000e+00
 3  3  3    -5.0619747641e-01

   19
0.0000000000e+00 0.0000000000e+00 0.0000000000e+00
0.0000000000e+00 0.0000000000e+00 0.0000000000e+00
     1      2      2
 1  1  1     0.0000000000e+00
 1  1  2    -1.5426613271e-02
 1  1  3    -7.7629140251e-02
 1  2  1    -1.5426613271e-02
 1  2  2     0.0000000000e+00
 1  2  3     0.0000000000e+00
 1  3  1    -7.7629140251e-02
 1  3  2     0.0000000000e+00
 1  3  3     0.0000000000e+00
 2  1  1    -1.5426613271e-02
 2  1  2     0.0000000000e+00
 2  1  3     0.0000000000e+00
 2  2  1     0.0000000000e+00
 2  2  2     1.5426613271e-02
 2  2  3    -7.7629140251e-02
 2  3  1     0.0000000000e+00
 2  3  2    -7.7629140251e-02
 2  3  3     0.0000000000e+00
 3  1  1    -2.2388908296e-01
 3  1  2     0.0000000000e+00
 3  1  3     0.0000000000e+00
 3  2  1     0.0000000000e+00
 3  2  2    -2.2388908296e-01
 3  2  3     0.0000000000e+00
 3  3  1     0.0000000000e+00
 3  3  2     0.0000000000e+00
 3  3  3     5.0619747641e-01

   20
0.0000000000e+00 0.0000000000e+00 0.0000000000e+00
0.0000000000e+00 0.0000000000e+00 0.0000000000e+00
     1      2      3
 1  1  1     0.0000000000e+00
 1  1  2     1.8463191836e-02
 1  1  3    -1.7750030532e-02
 1  2  1    -1.0458871037e-02
 1  2  2     0.0000000000e+00
 1  2  3     0.0000000000e+00
 1  3  1     1.6431940992e-02
 1  3  2     0.0000000000e+00
 1  3  3     0.0000000000e+00
 2  1  1     6.3114524153e-03
 2  1  2     0.0000000000e+00
 2  1  3     0.0000000000e+00
 2  2  1     0.0000000000e+00
 2  2  2     1.0602933485e-02
 2  2  3    -7.7197540352e-03
 2  3  1     0.0000000000e+00
 2  3  2    -1.0592642287e-01
 2  3  3    -3.7808889582e-02
 3  1  1     1.1870224517e-02
 3  1  2     0.0000000000e+00
 3  1  3     0.0000000000e+00
 3  2  1     0.0000000000e+00
 3  2  2    -3.8481521046e-03
 3  2  3     2.5688893439e-03
 3  3  1     0.0000000000e+00
 3  3  2     1.4048955903e-01
 3  3  3    -1.3208408169e-01

   21
0.0000000000e+00 0.0000000000e+00 0.0000000000e+00
0.0000000000e+00 0.0000000000e+00 0.0000000000e+00
     1      2      4
 1  1  1     9.9862631342e-03
 1  1  2     7.8392810196e-03
 1  1  3     1.0227323159e-02
 1  2  1     1.7634113094e-03
 1  2  2    -9.8615013942e-03
 1  2  3    -4.3432371267e-03
 1  3  1    -8.1442050734e-05
 1  3  2     6.8062567301e-03
 1  3  3     2.2247234313e-03
 2  1  1    -6.6217504167e-03
 2  1  2     4.6620247451e-03
 2  1  3    -4.3432371267e-03
 2  2  1     1.5185739783e-02
 2  2  2     6.6937816409e-03
 2  2  3     1.5242461408e-02
 2  3  1     6.8062567301e-03
 2  3  2    -7.9406303613e-03
 2  3  3     1.2844446719e-03
 3  1  1     7.5336831904e-02
 3  1  2     5.2982725735e-02
 3  1  3    -3.2743458867e-02
 3  2  1     5.2982725735e-02
 3  2  2     1.4157649973e-02
 3  2  3    -1.8904444791e-02
 3  3  1     1.2166752709e-01
 3  3  2     7.0244779517e-02
 3  3  3     1.3208408169e-01

   22
0.0000000000e+00 0.0000000000e+00 0.0000000000e+00
-2.4657679783e+00 0.0000000000e+00 0.0000000000e+00
     1      2      4
 1  1  1    -9.9862631342e-03
 1  1  2     7.8392810196e-03
 1  1  3     1.0227323159e-02
 1  2  1     1.7634113094e-03
 1  2  2     9.8615013942e-03
 1  2  3     4.3432371267e-03
 1  3  1    -8.1442050734e-05
 1  3  2    -6.8062567301e-03
 1  3  3    -2.2247234313e-03
 2  1  1    -6.6217504167e-03
 2  1  2    -4.6620247451e-03
 2  1  3     4.3432371267e-03
 2  2  1    -1.5185739783e-02
 2  2  2     6.6937816409e-03
 2  2  3     1.5242461408e-02
 2  3  1    -6.8062567301e-03
 2  3  2    -7.9406303613e-03
 2  3  3     1.2844446719e-03
 3  1  1     7.5336831904e-02
 3  1  2    -5.2982725735e-02
 3  1  3     3.2743458867e-02
 3  2  1    -5.2982725735e-02
 3  2  2     1.4157649973e-02
 3  2  3    -1.8904444791e-02
 3  3  1    -1.2166752709e-01
 3  3  2     7.0244779517e-02
 3  3  3     1.3208408169e-01

   23
0.0000000000e+00 0.0000000000e+00 0.0000000000e+00
1.2328839892e+00 -2.1354177091e+00 0.0000000000e+00
     1      2      3
 1  1  1     9.9862631342e-03
 1  1  2    -7.8392810196e-03
 1  1  3    -1.0227323159e-02
 1  2  1     6.6217504167e-03
 1  2  2     4.6620247451e-03
 1  2  3    -4.3432371267e-03
 1  3  1    -7.5336831904e-02
 1  3  2     5.2982725735e-02
 1  3  3    -3.2743458867e-02
 2  1  1    -1.7634113094e-03
 2  1  2    -9.8615013942e-03
 2  1  3    -4.3432371267e-03
 2  2  1     1.5185739783e-02
 2  2  2    -6.6937816409e-03
 2  2  3    -1.5242461408e-02
 2  3  1     5.2982725735e-02
 2  3  2    -1.4157649973e-02
 2  3  3     1.8904444791e-02
 3  1  1     8.1442050734e-05
 3  1  2     6.8062567301e-03
 3  1  3     2.2247234313e-03
 3  2  1     6.8062567301e-03
 3  2  2     7.9406303613e-03
 3  2  3    -1.2844446719e-03
 3  3  1     1.2166752709e-01
 3  3  2    -7.0244779517e-02
 3  3  3    -1.3208408169e-01

   24
0.0000000000e+00 0.0000000000e+00 0.0000000000e+00
-1.2328839892e+00 -2.1354177091e+00 0.0000000000e+00
     1      2      3
 1  1  1    -9.9862631342e-03
 1  1  2    -7.8392810196e-03
 1  1  3    -1.0227323159e-02
 1  2  1     6.6217504167e-03
 1  2  2    -4.6620247451e-03
 1  2  3     4.3432371267e-03
 1  3  1    -7.5336831904e-02
 1  3  2    -5.2982725735e-02
 1  3  3     3.2743458867e-02
 2  1  1    -1.7634113094e-03
 2  1  2     9.8615013942e-03
 2  1  3     4.3432371267e-03
 2  2  1    -1.5185739783e-02
 2  2  2    -6.6937816409e-03
 2  2  3    -1.5242461408e-02
 2  3  1    -5.2982725735e-02
 2  3  2    -1.4157649973e-02
 2  3  3     1.8904444791e-02
 3  1  1     8.1442050734e-05
 3  1  2    -6.8062567301e-03
 3  1  3    -2.2247234313e-03
 3  2  1    -6.8062567301e-03
 3  2  2     7.9406303613e-03
 3  2  3    -1.2844446719e-03
 3  3  1    -1.2166752709e-01
 3  3  2    -7.0244779517e-02
 3  3  3    -1.3208408169e-01

   25
0.0000000000e+00 0.0000000000e+00 0.0000000000e+00
-1.2328839892e+00 -2.1354177091e+00 0.0000000000e+00
     1      2      4
 1  1  1     0.0000000000e+00
 1  1  2    -1.8463191836e-02
 1  1  3     1.7750030532e-02
 1  2  1    -6.3114524153e-03
 1  2  2     0.0000000000e+00
 1  2  3     0.0000000000e+00
 1  3  1    -1.1870224517e-02
 1  3  2     0.0000000000e+00
 1  3  3     0.0000000000e+00
 2  1  1     1.0458871037e-02
 2  1  2     0.0000000000e+00
 2  1  3     0.0000000000e+00
 2  2  1     0.0000000000e+00
 2  2  2    -1.0602933485e-02
 2  2  3     7.7197540352e-03
 2  3  1     0.0000000000e+00
 2  3  2     3.8481521046e-03
 2  3  3    -2.5688893439e-03
 3  1  1    -1.6431940992e-02
 3  1  2     0.0000000000e+00
 3  1  3     0.0000000000e+00
 3  2  1     0.0000000000e+00
 3  2  2     1.0592642287e-01
 3  2  3     3.7808889582e-02
 3  3  1     0.0000000000e+00
 3  3  2    -1.4048955903e-01
 3  3  3     1.3208408169e-01

   26
0.0000000000e+00 0.0000000000e+00 0.0000000000e+00
0.0000000000e+00 0.0000000000e+00 0.0000000000e+00
     1      3      1
 1  1  1     0.0000000000e+00
 1  1  2     1.0586687013e+01
 1  1  3    -5.4848150499e-02
 1  2  1     7.7870494018e+00
 1  2  2     0.0000000000e+00
 1  2  3     0.0000000000e+00
 1  3  1    -2.8195619812e-02
 1  3  2     0.0000000000e+00
 1  3  3     0.0000000000e+00
 2  1  1     1.0586687013e+01
 2  1  2     0.0000000000e+00
 2  1  3     0.0000000000e+00
 2  2  1     0.0000000000e+00
 2  2  2    -1.8180489053e+02
 2  2  3     1.0516159394e-01
 2  3  1     0.0000000000e+00
 2  3  2    -6.1997820151e-02
 2  3  3     1.3152417138e+01
 3  1  1    -5.4848150499e-02
 3  1  2     0.0000000000e+00
 3  1  3     0.0000000000e+00
 3  2  1     0.0000000000e+00
 3  2  2     1.0516159394e-01
 3  2  3     1.1797330212e+01
 3  3  1     0.0000000000e+00
 3  3  2     1.3152417138e+01
 3  3  3     1.2573888141e-01

   27
0.0000000000e+00 0.0000000000e+00 0.0000000000e+00
0.0000000000e+00 0.0000000000e+00 0.0000000000e+00
     1      3      2
 1  1  1     0.0000000000e+00
 1  1  2    -1.0458871037e-02
 1  1  3     1.6431940992e-02
 1  2  1     1.8463191836e-02
 1  2  2     0.0000000000e+00
 1  2  3     0.0000000000e+00
 1  3  1    -1.7750030532e-02
 1  3  2     0.0000000000e+00
 1  3  3     0.0000000000e+00
 2  1  1     6.3114524153e-03
 2  1  2     0.0000000000e+00
 2  1  3     0.0000000000e+00
 2  2  1     0.0000000000e+00
 2  2  2     1.0602933485e-02
 2  2  3    -1.0592642287e-01
 2  3  1     0.0000000000e+00
 2  3  2    -7.7197540352e-03
 2  3  3    -3.7808889582e-02
 3  1  1     1.1870224517e-02
 3  1  2     0.0000000000e+00
 3  1  3     0.0000000000e+00
 3  2  1     0.0000000000e+00
 3  2  2    -3.8481521046e-03
 3  2  3     1.4048955903e-01
 3  3  1     0.0000000000e+00
 3  3  2     2.5688893439e-03
 3  3  3    -1.3208408169e-01

   28
0.0000000000e+00 0.0000000000e+00 0.0000000000e+00
0.0000000000e+00 0.0000000000e+00 0.0000000000e+00
     1      3      3
 1  1  1     0.0000000000e+00
 1  1  2    -1.0119960971e+01
 1  1  3    -2.2504208844e-02
 1  2  1    -1.0119960971e+01
 1  2  2     0.0000000000e+00
 1  2  3     0.0000000000e+00
 1  3  1    -2.2504208844e-02
 1  3  2     0.0000000000e+00
 1  3  3     0.0000000000e+00
 2  1  1    -6.8230951750e+00
 2  1  2     0.0000000000e+00
 2  1  3     0.0000000000e+00
 2  2  1     0.0000000000e+00
 2  2  2     1.8189445416e+02
 2  2  3     1.4048866896e-02
 2  3  1     0.0000000000e+00
 2  3  2     1.4048866896e-02
 2  3  3    -1.1687690910e+01
 3  1  1    -6.2528895589e-03
 3  1  2     0.0000000000e+00
 3  1  3     0.0000000000e+00
 3  2  1     0.0000000000e+00
 3  2  2    -1.6667575016e-01
 3  2  3    -1.3227073677e+01
 3  3  1     0.0000000000e+00
 3  3  2    -1.3227073677e+01
 3  3  3     1.4042932878e-01

   29
0.0000000000e+00 0.0000000000e+00 0.0000000000e+00
0.0000000000e+00 0.0000000000e+00 0.0000000000e+00
     1      3      4
 1  1  1    -8.4979436127e-03
 1  1  2     5.9745386214e-03
 1  1  3     6.2198280740e-03
 1  2  1    -9.5923923902e-03
 1  2  2    -7.3171395774e-03
 1  2  3    -2.8447276844e-03
 1  3  1    -1.3024169095e-03
 1  3  2    -1.1150227342e-02
 1  3  3    -1.0996383266e-02
 2  1  1     3.5044836517e-03
 2  1  2     2.1742457088e-03
 2  1  3     6.0390894549e-03
 2  2  1    -3.9793694628e-03
 2  2  2    -2.8605494190e-02
 2  2  3    -2.5303138486e-02
 2  3  1     2.3837393156e-02
 2  3  2     1.6721225395e-02
 2  3  3    -2.1364011406e-02
 3  1  1    -1.0566733245e-02
 3  1  2    -2.5811120829e-03
 3  1  3     7.3209965351e-03
 3  2  1    -5.6913823972e-02
 3  2  2    -2.1135148095e-02
 3  2  3    -1.9352569765e-03
 3  3  1     2.7120376718e-02
 3  3  2     2.9547233013e-02
 3  3  3    -5.8336410431e-02

   30
0.0000000000e+00 0.0000000000e+00 0.0000000000e+00
2.4657679783e+00 0.0000000000e+00 0.0000000000e+00
     1      3      1
 1  1  1     1.2663342143e+00
 1  1  2     2.8395966457e-01
 1  1  3     9.2995971491e-03
 1  2  1    -1.3841321172e+00
 1  2  2    -1.5743325852e+00
 1  2  3    -7.5980911905e-03
 1  3  1     7.8032388451e-05
 1  3  2    -8.2896793316e-03
 1  3  3    -7.6147146397e-01
 2  1  1     3.9440032742e-01
 2  1  2     4.5869828311e-01
 2  1  3     1.1037699343e-02
 2  2  1    -1.4047883388e+00
 2  2  2    -1.2991970241e+00
 2  2  3    -2.5109924268e-02
 2  3  1     1.3948092540e-02
 2  3  2     8.5907246280e-03
 2  3  3     1.0268736914e-02
 3  1  1    -3.0339729366e-03
 3  1  2     4.1411161181e-03
 3  1  3     1.2117673943e-01
 3  2  1     1.9990108579e-02
 3  2  2     1.1405255177e-02
 3  2  3    -4.2255088003e-01
 3  3  1     7.4809402893e-01
 3  3  2     4.8886560016e-01
 3  3  3     1.9471848259e-02

   31
0.0000000000e+00 0.0000000000e+00 0.0000000000e+00
2.4657679783e+00 0.0000000000e+00 0.0000000000e+00
     1      3      3
 1  1  1     1.3158626603e+00
 1  1  2    -2.6629174694e-01
 1  1  3     1.3152205208e-02
 1  2  1    -3.7886398782e-01
 1  2  2     4.3719584677e-01
 1  2  3    -7.1983057658e-03
 1  3  1    -1.3010426070e-15
 1  3  2    -8.3228091150e-03
 1  3  3     1.1947920739e-01
 2  1  1     1.3792832404e+00
 2  1  2    -1.6482964823e+00
 2  1  3     1.7046794925e-02
 2  2  1    -1.3227489474e+00
 2  2  2     1.1637555424e+00
 2  2  3    -2.1834460954e-02
 2  3  1    -5.1959234613e-03
 2  3  2    -8.1389134272e-03
 2  3  3     3.9953045698e-01
 3  1  1    -8.2938142930e-03
 3  1  2     8.0741110693e-03
 3  1  3    -7.5165836094e-01
 3  2  1     4.7645133223e-03
 3  2  2    -4.5816907787e-03
 3  2  3    -2.4963385567e-02
 3  3  1     7.3947392311e-01
 3  3  2    -4.8705335231e-01
 3  3  3     1.7786641346e-02

   32
0.0000000000e+00 0.0000000000e+00 0.0000000000e+00
-2.4657679783e+00 0.0000000000e+00 0.0000000000e+00
     1      3      1
 1  1  1    -1.2663342143e+00
 1  1  2     2.8395966457e-01
 1  1  3     9.2995971491e-03
 1  2  1    -1.3841321172e+00
 1  2  2     1.5743325852e+00
 1  2  3     7.5980911905e-03
 1  3  1     7.8032388451e-05
 1  3  2     8.2896793316e-03
 1  3  3     7.6147146397e-01
 2  1  1     3.9440032742e-01
 2  1  2    -4.5869828311e-01
 2  1  3    -1.1037699343e-02
 2  2  1     1.4047883388e+00
 2  2  2    -1.2991970241e+00
 2  2  3    -2.5109924268e-02
 2  3  1    -1.3948092540e-02
 2  3  2     8.5907246280e-03
 2  3  3     1.0268736914e-02
 3  1  1    -3.0339729366e-03
 3  1  2    -4.1411161181e-03
 3  1  3    -1.2117673943e-01
 3  2  1    -1.9990108579e-02
 3  2  2     1.1405255177e-02