 1989

    1
0.0000000000e+00 0.0000000000e+00 0.0000000000e+00
0.0000000000e+00 0.0000000000e+00 0.0000000000e+00
     1      1      1
 1  1  1     0.0000000000e+00
 1  1  2     0.0000000000e+00
 1  1  3     0.0000000000e+00
 1  2  1     0.0000000000e+00
 1  2  2     0.0000000000e+00
 1  2  3     0.0000000000e+00
 1  3  1     0.0000000000e+00
 1  3  2     0.0000000000e+00
 1  3  3     0.0000000000e+00
 2  1  1     0.0000000000e+00
 2  1  2     0.0000000000e+00
 2  1  3     0.0000000000e+00
 2  2  1     0.0000000000e+00
 2  2  2     0.0000000000e+00
 2  2  3     0.0000000000e+00
 2  3  1     0.0000000000e+00
 2  3  2     0.0000000000e+00
 2  3  3     0.0000000000e+00
 3  1  1     0.0000000000e+00
 3  1  2     0.0000000000e+00
 3  1  3     0.0000000000e+00
 3  2  1     0.0000000000e+00
 3  2  2     0.0000000000e+00
 3  2  3     0.0000000000e+00
 3  3  1     0.0000000000e+00
 3  3  2     0.0000000000e+00
 3  3  3     0.0000000000e+00

    2
0.0000000000e+00 0.0000000000e+00 0.0000000000e+00
0.0000000000e+00 0.0000000000e+00 0.0000000000e+00
     1      1      2
 1  1  1    -2.3910168127e+00
 1  1  2     3.3803274520e-01
 1  1  3    -8.9800065271e+00
 1  2  1    -4.1708970753e-01
 1  2  2    -3.6103545369e-01
 1  2  3     4.1702153355e+00
 1  3  1    -8.8563643130e+00
 1  3  2     5.2984030730e+00
 1  3  3    -8.5716044068e+00
 2  1  1    -4.1708970753e-01
 2  1  2    -3.6103545369e-01
 2  1  3     4.1702153355e+00
 2  2  1    -1.6689459088e+00
 2  2  2     2.0059878271e+00
 2  2  3    -4.1646566398e+00
 2  3  1     5.2984030730e+00
 2  3  2    -2.7382954364e+00
 2  3  3     4.9488181136e+00
 3  1  1    -8.8563643130e+00
 3  1  2     5.2984030730e+00
 3  1  3    -8.5716044068e+00
 3  2  1     5.2984030730e+00
 3  2  2    -2.7382954364e+00
 3  2  3     4.9488181136e+00
 3  3  1    -8.8025753171e+00
 3  3  2     5.0821692309e+00
 3  3  3    -8.9357612383e+00

    3
0.0000000000e+00 0.0000000000e+00 0.0000000000e+00
0.0000000000e+00 0.0000000000e+00 0.0000000000e+00
     1      1      3
 1  1  1    -2.3910168127e+00
 1  1  2     3.3803274520e-01
 1  1  3     8.9800065271e+00
 1  2  1    -4.1708970753e-01
 1  2  2    -3.6103545369e-01
 1  2  3    -4.1702153355e+00
 1  3  1     8.8563643130e+00
 1  3  2    -5.2984030730e+00
 1  3  3    -8.5716044068e+00
 2  1  1    -4.1708970753e-01
 2  1  2    -3.6103545369e-01
 2  1  3    -4.1702153355e+00
 2  2  1    -1.6689459088e+00
 2  2  2     2.0059878271e+00
 2  2  3     4.1646566398e+00
 2  3  1    -5.2984030730e+00
 2  3  2     2.7382954364e+00
 2  3  3     4.9488181136e+00
 3  1  1     8.8563643130e+00
 3  1  2    -5.2984030730e+00
 3  1  3    -8.5716044068e+00
 3  2  1    -5.2984030730e+00
 3  2  2     2.7382954364e+00
 3  2  3     4.9488181136e+00
 3  3  1    -8.8025753171e+00
 3  3  2     5.0821692309e+00
 3  3  3     8.9357612383e+00

    4
0.0000000000e+00 0.0000000000e+00 0.0000000000e+00
3.3185851570e+00 0.0000000000e+00 0.0000000000e+00
     1      1      1
 1  1  1    -4.6286286468e+00
 1  1  2     3.1370985682e+00
 1  1  3     0.0000000000e+00
 1  2  1     2.9207209356e-01
 1  2  2    -2.5777225764e-01
 1  2  3     0.0000000000e+00
 1  3  1     0.0000000000e+00
 1  3  2     0.0000000000e+00
 1  3  3    -6.4898786268e-01
 2  1  1     2.9207209356e-01
 2  1  2    -2.5777225764e-01
 2  1  3     0.0000000000e+00
 2  2  1     3.0911438016e-01
 2  2  2    -1.6901136388e-02
 2  2  3     0.0000000000e+00
 2  3  1     0.0000000000e+00
 2  3  2     0.0000000000e+00
 2  3  3    -1.0989931044e+00
 3  1  1     0.0000000000e+00
 3  1  2     0.0000000000e+00
 3  1  3    -6.4898786268e-01
 3  2  1     0.0000000000e+00
 3  2  2     0.0000000000e+00
 3  2  3    -1.0989931044e+00
 3  3  1    -1.4389277228e+00
 3  3  2    -7.3595693531e-01
 3  3  3     0.0000000000e+00

    5
0.0000000000e+00 0.0000000000e+00 0.0000000000e+00
3.3185851570e+00 0.0000000000e+00 0.0000000000e+00
     1      1      2
 1  1  1     2.8182440756e-02
 1  1  2    -9.7744343437e-02
 1  1  3     6.0687798472e-02
 1  2  1     2.5164515852e-02
 1  2  2     2.6537718637e-02
 1  2  3     4.8969813835e-02
 1  3  1    -7.2377227816e-02
 1  3  2     7.1362000938e-02
 1  3  3    -3.5020132787e-02
 2  1  1     2.5164515852e-02
 2  1  2     2.6537718637e-02
 2  1  3     4.8969813835e-02
 2  2  1     6.4861567534e-02
 2  2  2     6.1994802836e-02
 2  2  3     6.8257589644e-02
 2  3  1    -6.8155696959e-02
 2  3  2    -5.3436901065e-02
 2  3  3     1.4618757235e-01
 3  1  1    -7.2377227816e-02
 3  1  2     7.1362000938e-02
 3  1  3    -3.5020132787e-02
 3  2  1    -6.8155696959e-02
 3  2  2    -5.3436901065e-02
 3  2  3     1.4618757235e-01
 3  3  1     1.7223223838e-01
 3  3  2     5.7832676836e-02
 3  3  3    -1.5126101636e-01

    6
0.0000000000e+00 0.0000000000e+00 0.0000000000e+00
3.3185851570e+00 0.0000000000e+00 0.0000000000e+00
     1      1      3
 1  1  1     2.8182440756e-02
 1  1  2    -9.7744343437e-02
 1  1  3    -6.0687798472e-02
 1  2  1     2.5164515852e-02
 1  2  2     2.6537718637e-02
 1  2  3    -4.8969813835e-02
 1  3  1     7.2377227816e-02
 1  3  2    -7.1362000938e-02
 1  3  3    -3.5020132787e-02
 2  1  1     2.5164515852e-02
 2  1  2     2.6537718637e-02
 2  1  3    -4.8969813835e-02
 2  2  1     6.4861567534e-02
 2  2  2     6.1994802836e-02
 2  2  3    -6.8257589644e-02
 2  3  1     6.8155696959e-02
 2  3  2     5.3436901065e-02
 2  3  3     1.4618757235e-01
 3  1  1     7.2377227816e-02
 3  1  2    -7.1362000938e-02
 3  1  3    -3.5020132787e-02
 3  2  1     6.8155696959e-02
 3  2  2     5.3436901065e-02
 3  2  3     1.4618757235e-01
 3  3  1     1.7223223838e-01
 3  3  2     5.7832676836e-02
 3  3  3     1.5126101636e-01

    7
0.0000000000e+00 0.0000000000e+00 0.0000000000e+00
-6.6371703140e+00 0.0000000000e+00 0.0000000000e+00
     1      1      2
 1  1  1    -2.8182440739e-02
 1  1  2    -9.7744343419e-02
 1  1  3     6.0687798506e-02
 1  2  1     2.5164515884e-02
 1  2  2    -2.6537718658e-02
 1  2  3    -4.8969813859e-02
 1  3  1    -7.2377227815e-02
 1  3  2    -7.1362000920e-02
 1  3  3     3.5020132736e-02
 2  1  1     2.5164515884e-02
 2  1  2    -2.6537718658e-02
 2  1  3    -4.8969813859e-02
 2  2  1    -6.4861567556e-02
 2  2  2     6.1994802836e-02
 2  2  3     6.8257589644e-02
 2  3  1     6.8155696978e-02
 2  3  2    -5.3436901065e-02
 2  3  3     1.4618757235e-01
 3  1  1    -7.2377227815e-02
 3  1  2    -7.1362000920e-02
 3  1  3     3.5020132736e-02
 3  2  1     6.8155696978e-02
 3  2  2    -5.3436901065e-02
 3  2  3     1.4618757235e-01
 3  3  1    -1.7223223840e-01
 3  3  2     5.7832676836e-02
 3  3  3    -1.5126101636e-01

    8
0.0000000000e+00 0.0000000000e+00 0.0000000000e+00
-6.6371703140e+00 0.0000000000e+00 0.0000000000e+00
     1      1      3
 1  1  1    -2.8182440739e-02
 1  1  2    -9.7744343419e-02
 1  1  3    -6.0687798506e-02
 1  2  1     2.5164515884e-02
 1  2  2    -2.6537718658e-02
 1  2  3     4.8969813859e-02
 1  3  1     7.2377227815e-02
 1  3  2     7.1362000920e-02
 1  3  3     3.5020132736e-02
 2  1  1     2.5164515884e-02
 2  1  2    -2.6537718658e-02
 2  1  3     4.8969813859e-02
 2  2  1    -6.4861567556e-02
 2  2  2     6.1994802836e-02
 2  2  3    -6.8257589644e-02
 2  3  1    -6.8155696978e-02
 2  3  2     5.3436901065e-02
 2  3  3     1.4618757235e-01
 3  1  1     7.2377227815e-02
 3  1  2     7.1362000920e-02
 3  1  3     3.5020132736e-02
 3  2  1    -6.8155696978e-02
 3  2  2     5.3436901065e-02
 3  2  3     1.4618757235e-01
 3  3  1    -1.7223223840e-01
 3  3  2     5.7832676836e-02
 3  3  3     1.5126101636e-01

    9
0.0000000000e+00 0.0000000000e+00 0.0000000000e+00
-3.3185851570e+00 0.0000000000e+00 0.0000000000e+00
     1      1      1
 1  1  1     4.6286286455e+00
 1  1  2     3.1370985680e+00
 1  1  3     0.0000000000e+00
 1  2  1     2.9207209357e-01
 1  2  2     2.5777225764e-01
 1  2  3     0.0000000000e+00
 1  3  1     0.0000000000e+00
 1  3  2     0.0000000000e+00
 1  3  3     6.4898786307e-01
 2  1  1     2.9207209357e-01
 2  1  2     2.5777225764e-01
 2  1  3     0.0000000000e+00
 2  2  1    -3.0911438016e-01
 2  2  2    -1.6901136388e-02
 2  2  3     0.0000000000e+00
 2  3  1     0.0000000000e+00
 2  3  2     0.0000000000e+00
 2  3  3    -1.0989931044e+00
 3  1  1     0.0000000000e+00
 3  1  2     0.0000000000e+00
 3  1  3     6.4898786307e-01
 3  2  1     0.0000000000e+00
 3  2  2     0.0000000000e+00
 3  2  3    -1.0989931044e+00
 3  3  1     1.4389277230e+00
 3  3  2    -7.3595693531e-01
 3  3  3     0.0000000000e+00

   10
0.0000000000e+00 0.0000000000e+00 0.0000000000e+00
-3.3185851570e+00 0.0000000000e+00 0.0000000000e+00
     1      1      2
 1  1  1     2.3910168129e+00
 1  1  2     3.3803274495e-01
 1  1  3    -8.9800065242e+00
 1  2  1    -4.1708970824e-01
 1  2  2     3.6103545299e-01
 1  2  3    -4.1702153341e+00
 1  3  1    -8.8563643093e+00
 1  3  2    -5.2984030721e+00
 1  3  3     8.5716044050e+00
 2  1  1    -4.1708970824e-01
 2  1  2     3.6103545299e-01
 2  1  3    -4.1702153341e+00
 2  2  1     1.6689459081e+00
 2  2  2     2.0059878271e+00
 2  2  3    -4.1646566398e+00
 2  3  1    -5.2984030721e+00
 2  3  2    -2.7382954364e+00
 2  3  3     4.9488181136e+00
 3  1  1    -8.8563643093e+00
 3  1  2    -5.2984030721e+00
 3  1  3     8.5716044050e+00
 3  2  1    -5.2984030721e+00
 3  2  2    -2.7382954364e+00
 3  2  3     4.9488181136e+00
 3  3  1     8.8025753154e+00
 3  3  2     5.0821692309e+00
 3  3  3    -8.9357612383e+00

   11
0.0000000000e+00 0.0000000000e+00 0.0000000000e+00
-3.3185851570e+00 0.0000000000e+00 0.0000000000e+00
     1      1      3
 1  1  1     2.3910168129e+00
 1  1  2     3.3803274495e-01
 1  1  3     8.9800065242e+00
 1  2  1    -4.1708970824e-01
 1  2  2     3.6103545299e-01
 1  2  3     4.1702153341e+00
 1  3  1     8.8563643093e+00
 1  3  2     5.2984030721e+00
 1  3  3     8.5716044050e+00
 2  1  1    -4.1708970824e-01
 2  1  2     3.6103545299e-01
 2  1  3     4.1702153341e+00
 2  2  1     1.6689459081e+00
 2  2  2     2.0059878271e+00
 2  2  3     4.1646566398e+00
 2  3  1     5.2984030721e+00
 2  3  2     2.7382954364e+00
 2  3  3     4.9488181136e+00
 3  1  1     8.8563643093e+00
 3  1  2     5.2984030721e+00
 3  1  3     8.5716044050e+00
 3  2  1     5.2984030721e+00
 3  2  2     2.7382954364e+00
 3  2  3     4.9488181136e+00
 3  3  1     8.8025753154e+00
 3  3  2     5.0821692309e+00
 3  3  3     8.9357612383e+00

   12
0.0000000000e+00 0.0000000000e+00 0.0000000000e+00
-1.6592925790e+00 2.8739790520e+00 0.0000000000e+00
     1      1      1
 1  1  1    -1.3870519795e-01
 1  1  2    -8.5647848306e-01
 1  1  3     0.0000000000e+00
 1  2  1     7.5096525520e-02
 1  2  2     2.3436006137e+00
 1  2  3     0.0000000000e+00
 1  3  1     0.0000000000e+00
 1  3  2     0.0000000000e+00
 1  3  3     1.2762498780e+00
 2  1  1     7.5096525520e-02
 2  1  2     2.3436006137e+00
 2  1  3     0.0000000000e+00
 2  2  1    -4.0370790774e-01
 2  2  2    -4.4444293265e+00
 2  2  3     0.0000000000e+00
 2  3  1     0.0000000000e+00
 2  3  2     0.0000000000e+00
 2  3  3    -1.2543424073e-02
 3  1  1     0.0000000000e+00
 3  1  2     0.0000000000e+00
 3  1  3     1.2762498780e+00
 3  2  1     0.0000000000e+00
 3  2  2     0.0000000000e+00
 3  2  3    -1.2543424073e-02
 3  3  1     1.3568212634e+00
 3  3  2    -8.7816949522e-01
 3  3  3     0.0000000000e+00

   13
0.0000000000e+00 0.0000000000e+00 0.0000000000e+00
-1.6592925790e+00 2.8739790520e+00 0.0000000000e+00
     1      1      2
 1  1  1     8.0681049661e-10
 1  1  2    -2.5526663620e+00
 1  1  3    -1.7569816908e+00
 1  2  1    -1.0424214561e+00
 1  2  2     3.7150199935e-10
 1  2  3     1.9811703950e-09
 1  3  1     3.2073900498e-01
 1  3  2     2.0729804742e-09
 1  3  3     1.7219401744e-09
 2  1  1    -1.0424214561e+00
 2  1  2     3.7150191115e-10
 2  1  3     1.9811703950e-09
 2  2  1     3.7150163500e-10
 2  2  2    -2.1353747805e+00
 2  2  3    -1.1387681482e+01
 2  3  1     2.0729790036e-09
 2  3  2    -1.1915398762e+01
 2  3  3    -9.8976362271e+00
 3  1  1     3.2073900498e-01
 3  1  2     2.0729798860e-09
 3  1  3     1.7219401744e-09
 3  2  1     2.0729798860e-09
 3  2  2    -1.1915398762e+01
 3  2  3    -9.8976362271e+00
 3  3  1     1.7683396663e-09
 3  3  2    -1.0164338462e+01
 3  3  3    -8.9357612383e+00

   14
0.0000000000e+00 0.0000000000e+00 0.0000000000e+00
-1.6592925790e+00 2.8739790520e+00 0.0000000000e+00
     1      1      3
 1  1  1     8.0681049661e-10
 1  1  2    -2.5526663620e+00
 1  1  3     1.7569816908e+00
 1  2  1    -1.0424214561e+00
 1  2  2     3.7150199935e-10
 1  2  3    -1.9811703950e-09
 1  3  1    -3.2073900498e-01
 1  3  2    -2.0729804742e-09
 1  3  3     1.7219401744e-09
 2  1  1    -1.0424214561e+00
 2  1  2     3.7150191115e-10
 2  1  3    -1.9811703950e-09
 2  2  1     3.7150163500e-10
 2  2  2    -2.1353747805e+00
 2  2  3     1.1387681482e+01
 2  3  1    -2.0729790036e-09
 2  3  2     1.1915398762e+01
 2  3  3    -9.8976362271e+00
 3  1  1    -3.2073900498e-01
 3  1  2    -2.0729798860e-09
 3  1  3     1.7219401744e-09
 3  2  1    -2.0729798860e-09
 3  2  2     1.1915398762e+01
 3  2  3    -9.8976362271e+00
 3  3  1     1.7683396663e-09
 3  3  2    -1.0164338462e+01
 3  3  3     8.9357612383e+00

   15
0.0000000000e+00 0.0000000000e+00 0.0000000000e+00
1.6592925780e+00 2.8739790520e+00 0.0000000000e+00
     1      1      1
 1  1  1     1.3870519819e-01
 1  1  2    -8.5647848142e-01
 1  1  3     0.0000000000e+00
 1  2  1     7.5096526195e-02
 1  2  2    -2.3436006122e+00
 1  2  3     0.0000000000e+00
 1  3  1     0.0000000000e+00
 1  3  2     0.0000000000e+00
 1  3  3    -1.2762498780e+00
 2  1  1     7.5096526195e-02
 2  1  2    -2.3436006122e+00
 2  1  3     0.0000000000e+00
 2  2  1     4.0370790929e-01
 2  2  2    -4.4444293265e+00
 2  2  3     0.0000000000e+00
 2  3  1     0.0000000000e+00
 2  3  2     0.0000000000e+00
 2  3  3    -1.2543424073e-02
 3  1  1     0.0000000000e+00
 3  1  2     0.0000000000e+00
 3  1  3    -1.2762498780e+00
 3  2  1     0.0000000000e+00
 3  2  2     0.0000000000e+00
 3  2  3    -1.2543424073e-02
 3  3  1    -1.3568212631e+00
 3  3  2    -8.7816949522e-01
 3  3  3     0.0000000000e+00

   16
0.0000000000e+00 0.0000000000e+00 0.0000000000e+00
1.6592925780e+00 2.8739790520e+00 0.0000000000e+00
     1      1      2
 1  1  1     2.7344849484e-01
 1  1  2    -1.7974824373e-01
 1  1  3    -1.8881820901e-01
 1  2  1    -1.1656771978e-01
 1  2  2     1.2762679080e-01
 1  2  3    -4.8899613659e-02
 1  3  1    -2.8687330828e-01
 1  3  2    -7.2776511344e-02
 1  3  3     2.4741365150e-02
 2  1  1    -1.1656771978e-01
 2  1  2     1.2762679080e-01
 2  1  3    -4.8899613659e-02
 2  2  1     1.8194913251e-02
 2  2  2     3.4812864426e-01
 2  2  3    -1.3235379894e-01
 2  3  1    -7.2776511344e-02
 2  3  2    -2.0283823167e-01
 2  3  3     1.4284433838e-02
 3  1  1    -2.8687330828e-01
 3  1  2    -7.2776511344e-02
 3  1  3     2.4741365150e-02
 3  2  1    -7.2776511344e-02
 3  2  2    -2.0283823167e-01
 3  2  3     1.4284433838e-02
 3  3  1    -1.0843610034e-01
 3  3  2    -6.2605611759e-02
 3  3  3    -4.4505587583e-02

   17
0.0000000000e+00 0.0000000000e+00 0.0000000000e+00
1.6592925780e+00 2.8739790520e+00 0.0000000000e+00
     1      1      3
 1  1  1     2.7344849484e-01
 1  1  2    -1.7974824373e-01
 1  1  3     1.8881820901e-01
 1  2  1    -1.1656771978e-01
 1  2  2     1.2762679080e-01
 1  2  3     4.8899613659e-02
 1  3  1     2.8687330828e-01
 1  3  2     7.2776511344e-02
 1  3  3     2.4741365150e-02
 2  1  1    -1.1656771978e-01
 2  1  2     1.2762679080e-01
 2  1  3     4.8899613659e-02
 2  2  1     1.8194913251e-02
 2  2  2     3.4812864426e-01
 2  2  3     1.3235379894e-01
 2  3  1     7.2776511344e-02
 2  3  2     2.0283823167e-01
 2  3  3     1.4284433838e-02
 3  1  1     2.8687330828e-01
 3  1  2     7.2776511344e-02
 3  1  3     2.4741365150e-02
 3  2  1     7.2776511344e-02
 3  2  2     2.0283823167e-01
 3  2  3     1.4284433838e-02
 3  3  1    -1.0843610034e-01
 3  3  2    -6.2605611759e-02
 3  3  3     4.4505587583e-02

   18
0.0000000000e+00 0.0000000000e+00 0.0000000000e+00
4.9778777350e+00 2.8739790520e+00 0.0000000000e+00
     1      1      1
 1  1  1     1.2243392554e-01
 1  1  2     1.3657542710e-01
 1  1  3     0.0000000000e+00
 1  2  1     1.3540745120e-03
 1  2  2    -3.7258775780e-02
 1  2  3     0.0000000000e+00
 1  3  1     0.0000000000e+00
 1  3  2     0.0000000000e+00
 1  3  3    -5.4201525230e-02
 2  1  1     1.3540745120e-03
 2  1  2    -3.7258775780e-02
 2  1  3     0.0000000000e+00
 2  2  1     1.9695147722e-01
 2  2  2     4.7821821213e-02
 2  2  3     0.0000000000e+00
 2  3  1     0.0000000000e+00
 2  3  2     0.0000000000e+00
 2  3  3    -3.1293265200e-02
 3  1  1     0.0000000000e+00
 3  1  2     0.0000000000e+00
 3  1  3    -5.4201525230e-02
 3  2  1     0.0000000000e+00
 3  2  2     0.0000000000e+00
 3  2  3    -3.1293265200e-02
 3  3  1    -1.1432070529e-02
 3  3  2    -6.6003090015e-03
 3  3  3     0.0000000000e+00

   19
0.0000000000e+00 0.0000000000e+00 0.0000000000e+00
-4.9778777360e+00 2.8739790520e+00 0.0000000000e+00
     1      1      1
 1  1  1    -1.2243392559e-01
 1  1  2     1.3657542708e-01
 1  1  3     0.0000000000e+00
 1  2  1     1.3540745675e-03
 1  2  2     3.7258775763e-02
 1  2  3     0.0000000000e+00
 1  3  1     0.0000000000e+00
 1  3  2     0.0000000000e+00
 1  3  3     5.4201525241e-02
 2  1  1     1.3540745675e-03
 2  1  2     3.7258775763e-02
 2  1  3     0.0000000000e+00
 2  2  1    -1.9695147724e-01
 2  2  2     4.7821821213e-02
 2  2  3     0.0000000000e+00
 2  3  1     0.0000000000e+00
 2  3  2     0.0000000000e+00
 2  3  3    -3.1293265200e-02
 3  1  1     0.0000000000e+00
 3  1  2     0.0000000000e+00
 3  1  3     5.4201525241e-02
 3  2  1     0.0000000000e+00
 3  2  2     0.0000000000e+00
 3  2  3    -3.1293265200e-02
 3  3  1     1.1432070532e-02
 3  3  2    -6.6003090015e-03
 3  3  3     0.0000000000e+00

   20
0.0000000000e+00 0.0000000000e+00 0.0000000000e+00
-4.9778777360e+00 2.8739790520e+00 0.0000000000e+00
     1      1      2
 1  1  1    -2.7344849469e-01
 1  1  2    -1.7974824364e-01
 1  1  3    -1.8881820904e-01
 1  2  1    -1.1656771973e-01
 1  2  2    -1.2762679092e-01
 1  2  3     4.8899613705e-02
 1  3  1    -2.8687330833e-01
 1  3  2     7.2776511414e-02
 1  3  3    -2.4741365155e-02
 2  1  1    -1.1656771973e-01
 2  1  2    -1.2762679092e-01
 2  1  3     4.8899613705e-02
 2  2  1    -1.8194913372e-02
 2  2  2     3.4812864426e-01
 2  2  3    -1.3235379894e-01
 2  3  1     7.2776511414e-02
 2  3  2    -2.0283823167e-01
 2  3  3     1.4284433838e-02
 3  1  1    -2.8687330833e-01
 3  1  2     7.2776511414e-02
 3  1  3    -2.4741365155e-02
 3  2  1     7.2776511414e-02
 3  2  2    -2.0283823167e-01
 3  2  3     1.4284433838e-02
 3  3  1     1.0843610036e-01
 3  3  2    -6.2605611759e-02
 3  3  3    -4.4505587583e-02

   21
0.0000000000e+00 0.0000000000e+00 0.0000000000e+00
-4.9778777360e+00 2.8739790520e+00 0.0000000000e+00
     1      1      3
 1  1  1    -2.7344849469e-01
 1  1  2    -1.7974824364e-01
 1  1  3     1.8881820904e-01
 1  2  1    -1.1656771973e-01
 1  2  2    -1.2762679092e-01
 1  2  3    -4.8899613705e-02
 1  3  1     2.8687330833e-01
 1  3  2    -7.2776511414e-02
 1  3  3    -2.4741365155e-02
 2  1  1    -1.1656771973e-01
 2  1  2    -1.2762679092e-01
 2  1  3    -4.8899613705e-02
 2  2  1    -1.8194913372e-02
 2  2  2     3.4812864426e-01
 2  2  3     1.3235379894e-01
 2  3  1    -7.2776511414e-02
 2  3  2     2.0283823167e-01
 2  3  3     1.4284433838e-02
 3  1  1     2.8687330833e-01
 3  1  2    -7.2776511414e-02
 3  1  3    -2.4741365155e-02
 3  2  1    -7.2776511414e-02
 3  2  2     2.0283823167e-01
 3  2  3     1.4284433838e-02
 3  3  1     1.0843610036e-01
 3  3  2    -6.2605611759e-02
 3  3  3     4.4505587583e-02

   22
0.0000000000e+00 0.0000000000e+00 0.0000000000e+00
-3.3185851580e+00 5.7479581040e+00 0.0000000000e+00
     1      1      2
 1  1  1    -7.7750271306e-02
 1  1  2     4.4582710856e-02
 1  1  3     1.0877424460e-01
 1  2  1    -5.0061145507e-02
 1  2  2    -2.5091992487e-02
 1  2  3    -2.1207091233e-02
 1  3  1    -5.6783612376e-02
 1  3  2     7.7158675059e-02
 1  3  3    -1.0909208491e-01
 2  1  1    -5.0061145507e-02
 2  1  2    -2.5091992487e-02
 2  1  3    -2.1207091233e-02
 2  2  1     6.2188277617e-02
 2  2  2     5.3870534368e-02
 2  2  3     2.0171143492e-02
 2  3  1    -6.2359022839e-02
 2  3  2    -6.9030516523e-02
 2  3  3    -1.0342211080e-01
 3  1  1    -5.6783612376e-02
 3  1  2     7.7158675059e-02
 3  1  3    -1.0909208491e-01
 3  2  1    -6.2359022839e-02
 3  2  2    -6.9030516523e-02
 3  2  3    -1.0342211080e-01
 3  3  1    -1.3620068650e-01
 3  3  2     1.2024115545e-01
 3  3  3    -1.5126101636e-01

   23
0.0000000000e+00 0.0000000000e+00 0.0000000000e+00
-3.3185851580e+00 5.7479581040e+00 0.0000000000e+00
     1      1      3
 1  1  1    -7.7750271306e-02
 1  1  2     4.4582710856e-02
 1  1  3    -1.0877424460e-01
 1  2  1    -5.0061145507e-02
 1  2  2    -2.5091992487e-02
 1  2  3     2.1207091233e-02
 1  3  1     5.6783612376e-02
 1  3  2    -7.7158675059e-02
 1  3  3    -1.0909208491e-01
 2  1  1    -5.0061145507e-02
 2  1  2    -2.5091992487e-02
 2  1  3     2.1207091233e-02
 2  2  1     6.2188277617e-02
 2  2  2     5.3870534368e-02
 2  2  3    -2.0171143492e-02
 2  3  1     6.2359022839e-02
 2  3  2     6.9030516523e-02
 2  3  3    -1.0342211080e-01
 3  1  1     5.6783612376e-02
 3  1  2    -7.7158675059e-02
 3  1  3    -1.0909208491e-01
 3  2  1     6.2359022839e-02
 3  2  2     6.9030516523e-02
 3  2  3    -1.0342211080e-01
 3  3  1    -1.3620068650e-01
 3  3  2     1.2024115545e-01
 3  3  3     1.5126101636e-01

   24
0.0000000000e+00 0.0000000000e+00 0.0000000000e+00
-1.0000006379e-09 5.7479581040e+00 0.0000000000e+00
     1      1      1
 1  1  1     7.5906296981e-11
 1  1  2    -1.0372670687e-01
 1  1  3     0.0000000000e+00
 1  2  1    -1.6628980374e-01
 1  2  2    -2.9137522376e-11
 1  2  3     0.0000000000e+00
 1  3  1     0.0000000000e+00
 1  3  2     0.0000000000e+00
 1  3  3    -3.5051358820e-12
 2  1  1    -1.6628980374e-01
 2  1  2    -2.9137522376e-11
 2  1  3     0.0000000000e+00
 2  2  1    -2.9137522376e-11
 2  2  2     1.6748129606e-01
 2  2  3     0.0000000000e+00
 2  3  1     0.0000000000e+00
 2  3  2     0.0000000000e+00
 2  3  3     2.0147378793e-02
 3  1  1     0.0000000000e+00
 3  1  2     0.0000000000e+00
 3  1  3    -3.5051358820e-12
 3  2  1     0.0000000000e+00
 3  2  2     0.0000000000e+00
 3  2  3     2.0147378793e-02
 3  3  1     7.2788703169e-12
 3  3  2    -4.1838651166e-02
 3  3  3     0.0000000000e+00

   25
0.0000000000e+00 0.0000000000e+00 0.0000000000e+00
-1.0000000827e-09 5.7479581040e+00 0.0000000000e+00
     1      1      2
 1  1  1     7.7750271326e-02
 1  1  2     4.4582710839e-02
 1  1  3     1.0877424459e-01
 1  2  1    -5.0061145494e-02
 1  2  2     2.5091992468e-02
 1  2  3     2.1207091226e-02
 1  3  1    -5.6783612371e-02
 1  3  2    -7.7158675035e-02
 1  3  3     1.0909208494e-01
 2  1  1    -5.0061145494e-02
 2  1  2     2.5091992468e-02
 2  1  3     2.1207091226e-02
 2  2  1    -6.2188277636e-02
 2  2  2     5.3870534368e-02
 2  2  3     2.0171143492e-02
 2  3  1     6.2359022863e-02
 2  3  2    -6.9030516523e-02
 2  3  3    -1.0342211080e-01
 3  1  1    -5.6783612371e-02
 3  1  2    -7.7158675035e-02
 3  1  3     1.0909208494e-01
 3  2  1     6.2359022863e-02
 3  2  2    -6.9030516523e-02
 3  2  3    -1.0342211080e-01
 3  3  1     1.3620068646e-01
 3  3  2     1.2024115545e-01
 3  3  3    -1.5126101636e-01

   26
0.0000000000e+00 0.0000000000e+00 0.0000000000e+00
-1.0000000827e-09 5.7479581040e+00 0.0000000000e+00
     1      1      3
 1  1  1     7.7750271326e-02
 1  1  2     4.4582710839e-02
 1  1  3    -1.0877424459e-01
 1  2  1    -5.0061145494e-02
 1  2  2     2.5091992468e-02
 1  2  3    -2.1207091226e-02
 1  3  1     5.6783612371e-02
 1  3  2     7.7158675035e-02
 1  3  3     1.0909208494e-01
 2  1  1    -5.0061145494e-02
 2  1  2     2.5091992468e-02
 2  1  3    -2.1207091226e-02
 2  2  1    -6.2188277636e-02
 2  2  2     5.3870534368e-02
 2  2  3    -2.0171143492e-02
 2  3  1    -6.2359022863e-02
 2  3  2     6.9030516523e-02
 2  3  3    -1.0342211080e-01
 3  1  1     5.6783612371e-02
 3  1  2     7.7158675035e-02
 3  1  3     1.0909208494e-01
 3  2  1    -6.2359022863e-02
 3  2  2     6.9030516523e-02
 3  2  3    -1.0342211080e-01
 3  3  1     1.3620068646e-01
 3  3  2     1.2024115545e-01
 3  3  3     1.5126101636e-01

   27
0.0000000000e+00 0.0000000000e+00 0.0000000000e+00
1.0000000827e-09 -5.7479581040e+00 0.0000000000e+00
     1      1      1
 1  1  1     1.2661583535e-11
 1  1  2    -2.0455453793e-01
 1  1  3     0.0000000000e+00
 1  2  1     6.5888167172e-02
 1  2  2     2.8573605334e-11
 1  2  3     0.0000000000e+00
 1  3  1     0.0000000000e+00
 1  3  2     0.0000000000e+00
 1  3  3    -1.0888481271e-11
 2  1  1     6.5888167172e-02
 2  1  2     2.8573603559e-11
 2  1  3     0.0000000000e+00
 2  2  1     2.8573645678e-11
 2  2  2    -1.6423995875e-01
 2  2  3     0.0000000000e+00
 2  3  1     0.0000000000e+00
 2  3  2     0.0000000000e+00
 2  3  3     6.2586530401e-02
 3  1  1     0.0000000000e+00
 3  1  2     0.0000000000e+00
 3  1  3    -1.0888481271e-11
 3  2  1     0.0000000000e+00
 3  2  2     0.0000000000e+00
 3  2  3     6.2586530401e-02
 3  3  1    -2.2965753329e-12
 3  3  2     1.3200618003e-02
 3  3  3     0.0000000000e+00

   28
0.0000000000e+00 0.0000000000e+00 0.0000000000e+00
1.6592925790e+00 -2.8739790520e+00 0.0000000000e+00
     1      1      1
 1  1  1    -1.4506849617e+00
 1  1  2     5.2298783328e-01
 1  1  3     0.0000000000e+00
 1  2  1     2.4364393001e+00
 1  2  2    -1.2308205317e+00
 1  2  3     0.0000000000e+00
 1  3  1     0.0000000000e+00
 1  3  2     0.0000000000e+00
 1  3  3     6.2726201490e-01
 2  1  1     2.4364393001e+00
 2  1  2    -1.2308205317e+00
 2  1  3     0.0000000000e+00
 2  2  1    -3.4112424154e+00
 2  2  2     1.6577225414e+00
 2  2  3     0.0000000000e+00
 2  3  1     0.0000000000e+00
 2  3  2     0.0000000000e+00
 2  3  3     1.1115365285e+00
 3  1  1     0.0000000000e+00
 3  1  2     0.0000000000e+00
 3  1  3     6.2726201490e-01
 3  2  1     0.0000000000e+00
 3  2  2     0.0000000000e+00
 3  2  3     1.1115365285e+00
 3  3  1    -8.2106459986e-02
 3  3  2     1.6141264305e+00
 3  3  3     0.0000000000e+00

   29
0.0000000000e+00 0.0000000000e+00 0.0000000000e+00
1.6592925790e+00 -2.8739790520e+00 0.0000000000e+00
     1      1      2
 1  1  1     1.7748092439e-02
 1  1  2    -2.8895953247e-02
 1  1  3     2.3956039006e-02
 1  2  1    -5.7160956217e-02
 1  2  2    -6.5870196872e-02
 1  2  3     2.7762722599e-02
 1  3  1    -5.9560353057e-02
 1  3  2    -6.0755870859e-02
 1  3  3    -1.4411221768e-01
 2  1  1    -5.7160956217e-02
 2  1  2    -6.5870196872e-02
 2  1  3     2.7762722599e-02
 2  2  1     5.9733922129e-02
 2  2  2    -3.3807751273e-02
 2  2  3     1.0498934915e-01
 2  3  1     7.8761827038e-02
 2  3  2    -6.6253775840e-02
 2  3  3    -4.2765461542e-02
 3  1  1    -5.9560353057e-02
 3  1  2    -6.0755870859e-02
 3  1  3    -1.4411221768e-01
 3  2  1     7.8761827038e-02
 3  2  2    -6.6253775840e-02
 3  2  3    -4.2765461542e-02
 3  3  1     3.6031551940e-02
 3  3  2    -1.7807383229e-01
 3  3  3    -1.5126101636e-01

   30
0.0000000000e+00 0.0000000000e+00 0.0000000000e+00
1.6592925790e+00 -2.8739790520e+00 0.0000000000e+00
     1      1      3
 1  1  1     1.7748092439e-02
 1  1  2    -2.8895953247e-02
 1  1  3    -2.3956039006e-02
 1  2  1    -5.7160956217e-02
 1  2  2    -6.5870196872e-02
 1  2  3    -2.7762722599e-02
 1  3  1     5.9560353057e-02
 1  3  2     6.0755870859e-02
 1  3  3    -1.4411221768e-01
 2  1  1    -5.7160956217e-02
 2  1  2    -6.5870196872e-02
 2  1  3    -2.7762722599e-02
 2  2  1     5.9733922129e-02
 2  2  2    -3.3807751273e-02
 2  2  3    -1.0498934915e-01
 2  3  1    -7.8761827038e-02
 2  3  2     6.6253775840e-02
 2  3  3    -4.2765461542e-02
 3  1  1     5.9560353057e-02
 3  1  2     6.0755870859e-02
 3  1  3    -1.4411221768e-01
 3  2  1    -7.8761827038e-02
 3  2  2     6.6253775840e-02
 3  2  3    -4.2765461542e-02
 3  3  1     3.6031551940e-02
 3  3  2    -1.7807383229e-01
 3  3  3     1.5126101636e-01

   31
0.0000000000e+00 0.0000000000e+00 0.0000000000e+00
4.9778777360e+00 -2.8739790520e+00 0.0000000000e+00
     1      1      1
 1  1  1     1.4319204735e-02
 1  1  2    -1.7455700040e-01
 1  1  3     0.0000000000e+00
 1  2  1    -1.4327545198e-01
 1  2  2    -1.3287342220e-02
 1  2  3     0.0000000000e+00
 1  3  1     0.0000000000e+00
 1  3  2     0.0000000000e+00
 1  3  3     1.7448141847e-02
 2  1  1    -1.4327545198e-01
 2  1  2    -1.3287342220e-02
 2  1  3     0.0000000000e+00
 2  2  1     4.0893889034e-02
 2  2  2     1.4267970604e-01
 2  2  3     0.0000000000e+00
 2  3  1     0.0000000000e+00
 2  3  2     0.0000000000e+00
 2  3  3    -1.0073689396e-02
 3  1  1     0.0000000000e+00
 3  1  2     0.0000000000e+00
 3  1  3     1.7448141847e-02
 3  2  1     0.0000000000e+00
 3  2  2     0.0000000000e+00
 3  2  3    -1.0073689396e-02
 3  3  1    -3.6233334755e-02
 3  3  2     2.0919325583e-02
 3  3  3     0.0000000000e+00

   32
0.0000000000e+00 0.0000000000e+00 0.0000000000e+00
-4.9778777350e+00 -2.8739790520e+00 0.0000000000e+00
     1      1      1
 1  1  1    -1.4319204575e-02
 1  1  2    -1.7455700041e-01
 1  1  3     0.0000000000e+00
 1  2  1    -1.4327545197e-01
 1  2  2     1.3287342170e-02
 1  2  3     0.0000000000e+00
 1  3  1     0.0000000000e+00
 1  3  2     0.0000000000e+00
 1  3  3    -1.7448141844e-02
 2  1  1    -1.4327545197e-01
 2  1  2     1.3287342170e-02
 2  1  3     0.0000000000e+00
 2  2  1    -4.0893889084e-02
 2  2  2     1.4267970604e-01
 2  2  3     0.0000000000e+00
 2  3  1     0.0000000000e+00
 2  3  2     0.0000000000e+00
 2  3  3    -1.0073689396e-02
 3  1  1     0.0000000000e+00
 3  1  2     0.0000000000e+00
 3  1  3    -1.7448141844e-02
 3  2  1     0.0000000000e+00
 3  2  2     0.0000000000e+00