   0.32490E+01   0.13070E-02   0.13070E-02   0.13065E-02   0.13065E-02
   0.64980E+01   0.17421E-02   0.17421E-02   0.17407E-02   0.17407E-02
   0.97470E+01   0.21190E-02   0.21190E-02   0.21170E-02   0.21170E-02
   0.12996E+02   0.22742E-02   0.22742E-02   0.22717E-02   0.22717E-02
   0.16245E+02   0.23488E-02   0.23488E-02   0.23458E-02   0.23458E-02
   0.19494E+02   0.25614E-02   0.25614E-02   0.25579E-02   0.25579E-02
   0.22743E+02   0.90499E-02   0.90499E-02   0.90344E-02   0.90344E-02
   0.25992E+02   0.62226E-02   0.62226E-02   0.62215E-02   0.62215E-02
   0.29241E+02   0.60783E-02   0.60783E-02   0.60813E-02   0.60813E-02
   0.32490E+02   0.56667E-02   0.56667E-02   0.56725E-02   0.56725E-02
   0.35739E+02   0.59529E-02   0.59529E-02   0.59610E-02   0.59610E-02
   0.38988E+02   0.58612E-02   0.58612E-02   0.58720E-02   0.58720E-02
   0.42237E+02   0.61464E-02   0.61464E-02   0.61592E-02   0.61592E-02
   0.45486E+02   0.61702E-02   0.61702E-02   0.61873E-02   0.61873E-02
   0.48735E+02   0.66701E-02   0.66701E-02   0.66912E-02   0.66912E-02
   0.51984E+02   0.65160E-02   0.65160E-02   0.65388E-02   0.65388E-02
   0.55233E+02   0.71831E-02   0.71831E-02   0.72125E-02   0.72125E-02
   0.58482E+02   0.73859E-02   0.73859E-02   0.74176E-02   0.74176E-02
   0.61731E+02   0.76606E-02   0.76606E-02   0.77002E-02   0.77002E-02
   0.64980E+02   0.80630E-02   0.80630E-02   0.81080E-02   0.81080E-02
   0.68229E+02   0.80317E-02   0.80317E-02   0.80866E-02   0.80866E-02
   0.71478E+02   0.84909E-02   0.84909E-02   0.85548E-02   0.85548E-02
   0.74727E+02   0.87758E-02   0.87758E-02   0.88528E-02   0.88528E-02
   0.77976E+02   0.96393E-02   0.96393E-02   0.97353E-02   0.97353E-02
   0.81225E+02   0.10258E-01   0.10258E-01   0.10370E-01   0.10370E-01
   0.84474E+02   0.11867E-01   0.11867E-01   0.12019E-01   0.12019E-01
   0.87723E+02   0.14395E-01   0.14395E-01   0.14600E-01   0.14600E-01
   0.90972E+02   0.24761E-01   0.24761E-01   0.26439E-01   0.26439E-01
   0.94221E+02   0.75449E-02   0.75449E-02   0.77166E-02   0.77166E-02
   0.97470E+02   0.65153E-02   0.65153E-02   0.66456E-02   0.66456E-02
   0.10072E+03   0.52203E-02   0.52203E-02   0.53712E-02   0.53712E-02
   0.10397E+03   0.58239E-02   0.58239E-02   0.56953E-02   0.56953E-02
   0.10722E+03   0.73914E-02   0.73914E-02   0.72509E-02   0.72509E-02
   0.11047E+03   0.96652E-02   0.96652E-02   0.95046E-02   0.95046E-02
   0.11371E+03   0.11865E-01   0.11865E-01   0.11682E-01   0.11682E-01
   0.11696E+03   0.16436E-01   0.16436E-01   0.16159E-01   0.16159E-01
   0.12021E+03   0.27893E-01   0.27893E-01   0.27300E-01   0.27300E-01
   0.12346E+03   0.18493E-01   0.18493E-01   0.18243E-01   0.18243E-01
   0.12671E+03   0.16679E-01   0.16679E-01   0.16488E-01   0.16488E-01
   0.12996E+03   0.15831E-01   0.15831E-01   0.15675E-01   0.15675E-01
   0.13321E+03   0.14513E-01   0.14513E-01   0.14387E-01   0.14387E-01
   0.13646E+03   0.13895E-01   0.13895E-01   0.13790E-01   0.13790E-01
   0.13971E+03   0.13734E-01   0.13734E-01   0.13643E-01   0.13643E-01
   0.14296E+03   0.14041E-01   0.14041E-01   0.13959E-01   0.13959E-01
   0.14620E+03   0.14534E-01   0.14534E-01   0.14462E-01   0.14462E-01
   0.14945E+03   0.13999E-01   0.13999E-01   0.13941E-01   0.13941E-01
   0.15270E+03   0.13960E-01   0.13960E-01   0.13916E-01   0.13916E-01
   0.15595E+03   0.15286E-01   0.15286E-01   0.15244E-01   0.15244E-01
   0.15920E+03   0.15839E-01   0.15839E-01   0.15812E-01   0.15812E-01
   0.16245E+03   0.16337E-01   0.16337E-01   0.16325E-01   0.16325E-01
   0.16570E+03   0.11165E-01   0.11165E-01   0.11148E-01   0.11148E-01
   0.16895E+03   0.49148E-02   0.49148E-02   0.48972E-02   0.48972E-02
   0.17220E+03   0.50199E-02   0.50199E-02   0.50022E-02   0.50022E-02
   0.17545E+03   0.49564E-02   0.49564E-02   0.49398E-02   0.49398E-02
   0.17869E+03   0.49108E-02   0.49108E-02   0.48947E-02   0.48947E-02
   0.18194E+03   0.51547E-02   0.51547E-02   0.51382E-02   0.51382E-02
   0.18519E+03   0.49588E-02   0.49588E-02   0.49465E-02   0.49465E-02
   0.18844E+03   0.45934E-02   0.45934E-02   0.45883E-02   0.45883E-02
   0.19169E+03   0.37612E-02   0.37612E-02   0.37734E-02   0.37734E-02
   0.19494E+03   0.40452E-02   0.40452E-02   0.40591E-02   0.40591E-02
   0.19819E+03   0.42856E-02   0.42856E-02   0.43018E-02   0.43018E-02
   0.20144E+03   0.44615E-02   0.44615E-02   0.44805E-02   0.44805E-02
   0.20469E+03   0.48346E-02   0.48346E-02   0.48578E-02   0.48578E-02
   0.20794E+03   0.52087E-02   0.52087E-02   0.52378E-02   0.52378E-02
   0.21118E+03   0.55455E-02   0.55455E-02   0.55828E-02   0.55828E-02
   0.21443E+03   0.60616E-02   0.60616E-02   0.61124E-02   0.61124E-02
   0.21768E+03   0.65106E-02   0.65106E-02   0.65827E-02   0.65827E-02
   0.22093E+03   0.73272E-02   0.73272E-02   0.74658E-02   0.74658E-02
   0.22418E+03   0.56100E-02   0.56100E-02   0.56992E-02   0.56992E-02
   0.22743E+03   0.62036E-02   0.62036E-02   0.62684E-02   0.62684E-02
   0.23068E+03   0.63803E-02   0.63803E-02   0.64535E-02   0.64535E-02
   0.23393E+03   0.66813E-02   0.66813E-02   0.67031E-02   0.67031E-02
   0.23718E+03   0.12055E-01   0.12055E-01   0.12195E-01   0.12195E-01
   0.24043E+03   0.14859E-01   0.14859E-01   0.15106E-01   0.15106E-01
   0.24367E+03   0.15730E-01   0.15730E-01   0.15881E-01   0.15881E-01
   0.24692E+03   0.17645E-01   0.17645E-01   0.17561E-01   0.17561E-01
   0.25017E+03   0.28429E-01   0.28429E-01   0.28412E-01   0.28412E-01
   0.25342E+03   0.26097E-01   0.26097E-01   0.26125E-01   0.26125E-01
   0.25667E+03   0.19825E-01   0.19825E-01   0.19828E-01   0.19828E-01
   0.25992E+03   0.17951E-01   0.17951E-01   0.17953E-01   0.17953E-01
   0.26317E+03   0.15763E-01   0.15763E-01   0.15759E-01   0.15759E-01
   0.26642E+03   0.15153E-01   0.15153E-01   0.15146E-01   0.15146E-01
   0.26967E+03   0.13392E-01   0.13392E-01   0.13384E-01   0.13384E-01
   0.27291E+03   0.13700E-01   0.13700E-01   0.13693E-01   0.13693E-01
   0.27616E+03   0.13371E-01   0.13371E-01   0.13361E-01   0.13361E-01
   0.27941E+03   0.13005E-01   0.13005E-01   0.12992E-01   0.12992E-01
   0.28266E+03   0.13003E-01   0.13003E-01   0.12988E-01   0.12988E-01
   0.28591E+03   0.12281E-01   0.12281E-01   0.12261E-01   0.12261E-01
   0.28916E+03   0.13042E-01   0.13042E-01   0.13024E-01   0.13024E-01
   0.29241E+03   0.17959E-01   0.17959E-01   0.17942E-01   0.17942E-01
   0.29566E+03   0.00000E+00   0.00000E+00   0.00000E+00   0.00000E+00
   0.29891E+03   0.00000E+00   0.00000E+00   0.00000E+00   0.00000E+00
   0.30216E+03   0.00000E+00   0.00000E+00   0.00000E+00   0.00000E+00
   0.30540E+03   0.00000E+00   0.00000E+00   0.00000E+00   0.00000E+00
   0.30865E+03   0.00000E+00   0.00000E+00   0.00000E+00   0.00000E+00
   0.31190E+03   0.00000E+00   0.00000E+00   0.00000E+00   0.00000E+00
   0.31515E+03   0.00000E+00   0.00000E+00   0.00000E+00   0.00000E+00
   0.31840E+03   0.00000E+00   0.00000E+00   0.00000E+00   0.00000E+00
   0.32165E+03   0.00000E+00   0.00000E+00   0.00000E+00   0.00000E+00
   0.32490E+03   0.00000E+00   0.00000E+00   0.00000E+00   0.00000E+00
