  724

    1
0.0000000000e+00 0.0000000000e+00 0.0000000000e+00
0.0000000000e+00 0.0000000000e+00 0.0000000000e+00
     1      1      1
 1  1  1     0.0000000000e+00
 1  1  2    -1.5158820261e+02
 1  1  3    -1.9174484357e-01
 1  2  1    -1.5158820261e+02
 1  2  2     0.0000000000e+00
 1  2  3     0.0000000000e+00
 1  3  1    -1.9174484357e-01
 1  3  2     0.0000000000e+00
 1  3  3     0.0000000000e+00
 2  1  1    -1.5158820261e+02
 2  1  2     0.0000000000e+00
 2  1  3     0.0000000000e+00
 2  2  1     0.0000000000e+00
 2  2  2     1.5158820261e+02
 2  2  3    -1.9174484357e-01
 2  3  1     0.0000000000e+00
 2  3  2    -1.9174484357e-01
 2  3  3     0.0000000000e+00
 3  1  1    -1.9174484357e-01
 3  1  2     0.0000000000e+00
 3  1  3     0.0000000000e+00
 3  2  1     0.0000000000e+00
 3  2  2    -1.9174484357e-01
 3  2  3     0.0000000000e+00
 3  3  1     0.0000000000e+00
 3  3  2     0.0000000000e+00
 3  3  3     1.1461252375e+00

    2
0.0000000000e+00 0.0000000000e+00 0.0000000000e+00
0.0000000000e+00 0.0000000000e+00 0.0000000000e+00
     1      1      2
 1  1  1     0.0000000000e+00
 1  1  2     1.6069388558e-02
 1  1  3     2.2142043874e-01
 1  2  1     1.6069388558e-02
 1  2  2     0.0000000000e+00
 1  2  3     0.0000000000e+00
 1  3  1     7.5655518388e-02
 1  3  2     0.0000000000e+00
 1  3  3     0.0000000000e+00
 2  1  1     1.6069388558e-02
 2  1  2     0.0000000000e+00
 2  1  3     0.0000000000e+00
 2  2  1     0.0000000000e+00
 2  2  2    -1.6069388558e-02
 2  2  3     2.2142043874e-01
 2  3  1     0.0000000000e+00
 2  3  2     7.5655518388e-02
 2  3  3     0.0000000000e+00
 3  1  1     7.5655518388e-02
 3  1  2     0.0000000000e+00
 3  1  3     0.0000000000e+00
 3  2  1     0.0000000000e+00
 3  2  2     7.5655518388e-02
 3  2  3     0.0000000000e+00
 3  3  1     0.0000000000e+00
 3  3  2     0.0000000000e+00
 3  3  3    -4.9729901163e-01

    3
0.0000000000e+00 0.0000000000e+00 0.0000000000e+00
0.0000000000e+00 0.0000000000e+00 0.0000000000e+00
     1      1      3
 1  1  1     0.0000000000e+00
 1  1  2     6.7926431045e+00
 1  1  3    -3.1282472022e-02
 1  2  1     9.7420023891e+00
 1  2  2     0.0000000000e+00
 1  2  3     0.0000000000e+00
 1  3  1    -5.3093056749e-02
 1  3  2     0.0000000000e+00
 1  3  3     0.0000000000e+00
 2  1  1     9.7420023891e+00
 2  1  2     0.0000000000e+00
 2  1  3     0.0000000000e+00
 2  2  1     0.0000000000e+00
 2  2  2    -1.7499969446e+02
 2  2  3    -6.0939352331e-02
 2  3  1     0.0000000000e+00
 2  3  2     9.3551454307e-02
 2  3  3     1.2191488274e+01
 3  1  1    -5.3093056749e-02
 3  1  2     0.0000000000e+00
 3  1  3     0.0000000000e+00
 3  2  1     0.0000000000e+00
 3  2  2     9.3551454307e-02
 3  2  3     1.2191488274e+01
 3  3  1     0.0000000000e+00
 3  3  2     1.0872091050e+01
 3  3  3     1.2575850237e-01

    4
0.0000000000e+00 0.0000000000e+00 0.0000000000e+00
0.0000000000e+00 0.0000000000e+00 0.0000000000e+00
     1      1      4
 1  1  1     9.6076525813e-03
 1  1  2    -1.9999918764e-03
 1  1  3     4.4136503642e-02
 1  2  1    -5.3634079780e-03
 1  2  2     1.2606816687e-03
 1  2  3    -1.0879636130e-02
 1  3  1    -5.4268609561e-02
 1  3  2    -2.4100244074e-02
 1  3  3    -9.2159046178e-02
 2  1  1    -5.3634079780e-03
 2  1  2     1.2606816687e-03
 2  1  3    -1.0879636130e-02
 2  2  1     7.0862892438e-03
 2  2  2     1.1638243683e-02
 2  2  3     5.6699225339e-02
 2  3  1    -2.4100244074e-02
 2  3  2    -2.6440044754e-02
 2  3  3    -5.3208050119e-02
 3  1  1    -5.4268609561e-02
 3  1  2    -2.4100244074e-02
 3  1  3    -9.2159046178e-02
 3  2  1    -2.4100244074e-02
 3  2  2    -2.6440044754e-02
 3  2  3    -5.3208050119e-02
 3  3  1    -2.2555099592e-01
 3  3  2    -1.3022192821e-01
 3  3  3    -2.4931879230e-01

    5
0.0000000000e+00 0.0000000000e+00 0.0000000000e+00
2.4780968182e+00 0.0000000000e+00 0.0000000000e+00
     1      1      1
 1  1  1    -1.1094953350e+01
 1  1  2    -1.2560514879e+00
 1  1  3    -3.6105487987e-02
 1  2  1     1.1382179227e+00
 1  2  2     2.3998754771e+00
 1  2  3     2.3726870492e-02
 1  3  1     4.6486687194e-02
 1  3  2     6.0425858682e-02
 1  3  3     2.9351332551e+00
 2  1  1     1.1382179227e+00
 2  1  2     2.3998754771e+00
 2  1  3     2.3726870492e-02
 2  2  1     2.4124331659e+00
 2  2  2     1.1282459491e+00
 2  2  3     2.3709856040e-02
 2  3  1     4.5503333542e-03
 2  3  2     1.4221395737e-02
 2  3  3     3.9148634878e-01
 3  1  1     4.6486687194e-02
 3  1  2     6.0425858682e-02
 3  1  3     2.9351332551e+00
 3  2  1     4.5503333542e-03
 3  2  2     1.4221395737e-02
 3  2  3     3.9148634878e-01
 3  3  1    -4.2923969211e-01
 3  3  2     5.7577470120e-01
 3  3  3    -2.1331069086e-02

    6
0.0000000000e+00 0.0000000000e+00 0.0000000000e+00
2.4780968182e+00 0.0000000000e+00 0.0000000000e+00
     1      1      3
 1  1  1    -1.9238026020e+00
 1  1  2     1.4083220070e+00
 1  1  3    -2.2654976817e-02
 1  2  1    -8.6833221387e-01
 1  2  2    -1.9556944612e+00
 1  2  3    -3.5468870756e-02
 1  3  1     4.4961750799e-03
 1  3  2     1.0079847967e-02
 1  3  3     9.4167273203e-02
 2  1  1    -8.6833221387e-01
 2  1  2    -1.9556944612e+00
 2  1  3    -3.5468870756e-02
 2  2  1     1.9875863205e+00
 2  2  2    -1.3714964599e+00
 2  2  3     1.8300947340e-02
 2  3  1     1.0079847967e-02
 2  3  2    -7.1430307945e-03
 2  3  3     5.4367500532e-02
 3  1  1     4.4961750799e-03
 3  1  2     1.0079847967e-02
 3  1  3     9.4167273203e-02
 3  2  1     1.0079847967e-02
 3  2  2    -7.1430307945e-03
 3  2  3     5.4367500532e-02
 3  3  1    -5.0779566388e-02
 3  3  2    -2.9317596324e-02
 3  3  3    -4.3181562554e-02

    7
0.0000000000e+00 0.0000000000e+00 0.0000000000e+00
-2.4780968182e+00 0.0000000000e+00 0.0000000000e+00
     1      1      1
 1  1  1     1.1094953350e+01
 1  1  2    -1.2560514879e+00
 1  1  3    -3.6105487987e-02
 1  2  1     1.1382179227e+00
 1  2  2    -2.3998754771e+00
 1  2  3    -2.3726870492e-02
 1  3  1     4.6486687194e-02
 1  3  2    -6.0425858682e-02
 1  3  3    -2.9351332551e+00
 2  1  1     1.1382179227e+00
 2  1  2    -2.3998754771e+00
 2  1  3    -2.3726870492e-02
 2  2  1    -2.4124331659e+00
 2  2  2     1.1282459491e+00
 2  2  3     2.3709856040e-02
 2  3  1    -4.5503333542e-03
 2  3  2     1.4221395737e-02
 2  3  3     3.9148634878e-01
 3  1  1     4.6486687194e-02
 3  1  2    -6.0425858682e-02
 3  1  3    -2.9351332551e+00
 3  2  1    -4.5503333542e-03
 3  2  2     1.4221395737e-02
 3  2  3     3.9148634878e-01
 3  3  1     4.2923969211e-01
 3  3  2     5.7577470120e-01
 3  3  3    -2.1331069086e-02

    8
0.0000000000e+00 0.0000000000e+00 0.0000000000e+00
-2.4780968182e+00 0.0000000000e+00 0.0000000000e+00
     1      1      3
 1  1  1     1.9238026020e+00
 1  1  2     1.4083220070e+00
 1  1  3    -2.2654976817e-02
 1  2  1    -8.6833221387e-01
 1  2  2     1.9556944612e+00
 1  2  3     3.5468870756e-02
 1  3  1     4.4961750799e-03
 1  3  2    -1.0079847967e-02
 1  3  3    -9.4167273203e-02
 2  1  1    -8.6833221387e-01
 2  1  2     1.9556944612e+00
 2  1  3     3.5468870756e-02
 2  2  1    -1.9875863205e+00
 2  2  2    -1.3714964599e+00
 2  2  3     1.8300947340e-02
 2  3  1    -1.0079847967e-02
 2  3  2    -7.1430307945e-03
 2  3  3     5.4367500532e-02
 3  1  1     4.4961750799e-03
 3  1  2    -1.0079847967e-02
 3  1  3    -9.4167273203e-02
 3  2  1    -1.0079847967e-02
 3  2  2    -7.1430307945e-03
 3  2  3     5.4367500532e-02
 3  3  1     5.0779566388e-02
 3  3  2    -2.9317596324e-02
 3  3  3    -4.3181562554e-02

    9
0.0000000000e+00 0.0000000000e+00 0.0000000000e+00
-2.4780968182e+00 0.0000000000e+00 0.0000000000e+00
     1      1      4
 1  1  1    -9.6076525813e-03
 1  1  2    -1.9999918764e-03
 1  1  3     4.4136503642e-02
 1  2  1    -5.3634079780e-03
 1  2  2    -1.2606816687e-03
 1  2  3     1.0879636130e-02
 1  3  1    -5.4268609561e-02
 1  3  2     2.4100244074e-02
 1  3  3     9.2159046178e-02
 2  1  1    -5.3634079780e-03
 2  1  2    -1.2606816687e-03
 2  1  3     1.0879636130e-02
 2  2  1    -7.0862892438e-03
 2  2  2     1.1638243683e-02
 2  2  3     5.6699225339e-02
 2  3  1     2.4100244074e-02
 2  3  2    -2.6440044754e-02
 2  3  3    -5.3208050119e-02
 3  1  1    -5.4268609561e-02
 3  1  2     2.4100244074e-02
 3  1  3     9.2159046178e-02
 3  2  1     2.4100244074e-02
 3  2  2    -2.6440044754e-02
 3  2  3    -5.3208050119e-02
 3  3  1     2.2555099592e-01
 3  3  2    -1.3022192821e-01
 3  3  3    -2.4931879230e-01

   10
0.0000000000e+00 0.0000000000e+00 0.0000000000e+00
-1.2390484091e+00 2.1460947976e+00 0.0000000000e+00
     1      1      1
 1  1  1    -2.2714368103e+00
 1  1  2    -1.2868054762e+00
 1  1  3     2.9304092631e-02
 1  2  1    -2.4948154590e+00
 1  2  2     4.6561604570e+00
 1  2  3     1.4037368486e-02
 1  3  1     5.0423235073e-02
 1  3  2    -2.2775663763e-03
 1  3  3    -1.8066037508e+00
 2  1  1    -2.4948154590e+00
 2  1  2     4.6561604570e+00
 2  1  3     1.4037368486e-02
 2  2  1     6.7233797457e+00
 2  2  2    -6.1685748026e+00
 2  2  3    -4.1699724579e-02
 2  3  1    -5.8153091704e-02
 2  3  2     1.0284847857e-02
 2  3  3     2.3461567880e+00
 3  1  1     5.0423235073e-02
 3  1  2    -2.2775663763e-03
 3  1  3    -1.8066037508e+00
 3  2  1    -5.8153091704e-02
 3  2  2     1.0284847857e-02
 3  2  3     2.3461567880e+00
 3  3  1    -2.8401567205e-01
 3  3  2    -6.5961982828e-01
 3  3  3    -2.1331069086e-02

   11
0.0000000000e+00 0.0000000000e+00 0.0000000000e+00
1.2390484091e+00 2.1460947976e+00 0.0000000000e+00
     1      1      1
 1  1  1     2.2714368103e+00
 1  1  2    -1.2868054762e+00
 1  1  3     2.9304092631e-02
 1  2  1    -2.4948154590e+00
 1  2  2    -4.6561604570e+00
 1  2  3    -1.4037368486e-02
 1  3  1     5.0423235073e-02
 1  3  2     2.2775663763e-03
 1  3  3     1.8066037508e+00
 2  1  1    -2.4948154590e+00
 2  1  2    -4.6561604570e+00
 2  1  3    -1.4037368486e-02
 2  2  1    -6.7233797457e+00
 2  2  2    -6.1685748026e+00
 2  2  3    -4.1699724579e-02
 2  3  1     5.8153091704e-02
 2  3  2     1.0284847857e-02
 2  3  3     2.3461567880e+00
 3  1  1     5.0423235073e-02
 3  1  2     2.2775663763e-03
 3  1  3     1.8066037508e+00
 3  2  1     5.8153091704e-02
 3  2  2     1.0284847857e-02
 3  2  3     2.3461567880e+00
 3  3  1     2.8401567205e-01
 3  3  2    -6.5961982828e-01
 3  3  3    -2.1331069086e-02

   12
0.0000000000e+00 0.0000000000e+00 0.0000000000e+00
0.0000000000e+00 -4.2921895952e+00 0.0000000000e+00
     1      1      3
 1  1  1     0.0000000000e+00
 1  1  2    -2.0342784846e+00
 1  1  3     3.8778909418e-02
 1  2  1     2.5190299571e+00
 1  2  2     0.0000000000e+00
 1  2  3     0.0000000000e+00
 1  3  1    -1.2962633732e-02
 1  3  2     0.0000000000e+00
 1  3  3     0.0000000000e+00
 2  1  1     2.5190299571e+00
 2  1  2     0.0000000000e+00
 2  1  3     0.0000000000e+00
 2  2  1     0.0000000000e+00
 2  2  2     1.9606273904e+00
 2  2  3    -4.3132938896e-02
 2  3  1     0.0000000000e+00
 2  3  2     1.0315778017e-02
 2  3  3    -1.0873500106e-01
 3  1  1    -1.2962633732e-02
 3  1  2     0.0000000000e+00
 3  1  3     0.0000000000e+00
 3  2  1     0.0000000000e+00
 3  2  2     1.0315778017e-02
 3  2  3    -1.0873500106e-01
 3  3  1     0.0000000000e+00
 3  3  2     5.8635192647e-02
 3  3  3    -4.3181562554e-02

   13
0.0000000000e+00 0.0000000000e+00 0.0000000000e+00
1.2390484091e+00 -2.1460947976e+00 0.0000000000e+00
     1      1      1
 1  1  1     3.6396294227e-01
 1  1  2     2.4619607704e+00
 1  1  3    -1.1792052565e-02
 1  2  1     1.2757013426e+00
 1  2  2    -6.6743171684e+00
 1  2  3     3.7764238978e-02
 1  3  1    -5.8477978710e-03
 1  3  2    -2.5664995686e-02
 1  3  3     1.1285295043e+00
 2  1  1     1.2757013426e+00
 2  1  2    -6.6743171684e+00
 2  1  3     3.7764238978e-02
 2  2  1    -4.5945401910e+00
 2  2  2     5.1212250472e+00
 2  2  3    -6.0357938252e-04
 2  3  1     3.0210529642e-02
 2  3  2     6.6555880802e-02
 2  3  3    -2.7376431368e+00
 3  1  1    -5.8477978710e-03
 3  1  2    -2.5664995686e-02
 3  1  3     1.1285295043e+00
 3  2  1     3.0210529642e-02
 3  2  2     6.6555880802e-02
 3  2  3    -2.7376431368e+00
 3  3  1    -7.1325536415e-01
 3  3  2     8.3845127074e-02
 3  3  3    -2.1331069086e-02

   14
0.0000000000e+00 0.0000000000e+00 0.0000000000e+00
1.2390484091e+00 -2.1460947976e+00 0.0000000000e+00
     1      1      3
 1  1  1    -1.0797657464e+02
 1  1  2     7.2082306826e+01
 1  1  3    -5.3525132254e-02
 1  2  1     7.0607627184e+01
 1  2  2    -3.5140784860e+01
 1  2  3     1.2841805872e-02
 1  3  1     5.6890326543e-02
 1  3  2    -6.3498935950e-02
 1  3  3     1.0558138555e+01
 2  1  1     7.0607627184e+01
 2  1  2    -3.5140784860e+01
 2  1  3     1.2841805872e-02
 2  2  1    -3.7695004925e+01
 2  2  2     1.2021218851e+01
 2  2  3    -3.8696692100e-02
 2  3  1    -6.3498935950e-02
 2  3  2    -1.6431928985e-02
 2  3  3    -6.0957441368e+00
 3  1  1     5.6890326543e-02
 3  1  2    -6.3498935950e-02
 3  1  3     1.0558138555e+01
 3  2  1    -6.3498935950e-02
 3  2  2    -1.6431928985e-02
 3  2  3    -6.0957441368e+00
 3  3  1     9.4155070417e+00
 3  3  2    -5.4360455251e+00
 3  3  3     1.2575850237e-01

   15
0.0000000000e+00 0.0000000000e+00 0.0000000000e+00
-1.2390484091e+00 -2.1460947976e+00 0.0000000000e+00
     1      1      1
 1  1  1    -3.6396294227e-01
 1  1  2     2.4619607704e+00
 1  1  3    -1.1792052565e-02
 1  2  1     1.2757013426e+00
 1  2  2     6.6743171684e+00
 1  2  3    -3.7764238978e-02
 1  3  1    -5.8477978710e-03
 1  3  2     2.5664995686e-02
 1  3  3    -1.1285295043e+00
 2  1  1     1.2757013426e+00
 2  1  2     6.6743171684e+00
 2  1  3    -3.7764238978e-02
 2  2  1     4.5945401910e+00
 2  2  2     5.1212250472e+00
 2  2  3    -6.0357938252e-04
 2  3  1    -3.0210529642e-02
 2  3  2     6.6555880802e-02
 2  3  3    -2.7376431368e+00
 3  1  1    -5.8477978710e-03
 3  1  2     2.5664995686e-02
 3  1  3    -1.1285295043e+00
 3  2  1    -3.0210529642e-02
 3  2  2     6.6555880802e-02
 3  2  3    -2.7376431368e+00
 3  3  1     7.1325536415e-01
 3  3  2     8.3845127074e-02
 3  3  3    -2.1331069086e-02

   16
0.0000000000e+00 0.0000000000e+00 0.0000000000e+00
-1.2390484091e+00 -2.1460947976e+00 0.0000000000e+00
     1      1      3
 1  1  1     1.0797657464e+02
 1  1  2     7.2082306826e+01
 1  1  3    -5.3525132254e-02
 1  2  1     7.0607627184e+01
 1  2  2     3.5140784860e+01
 1  2  3    -1.2841805872e-02
 1  3  1     5.6890326543e-02
 1  3  2     6.3498935950e-02
 1  3  3    -1.0558138555e+01
 2  1  1     7.0607627184e+01
 2  1  2     3.5140784860e+01
 2  1  3    -1.2841805872e-02
 2  2  1     3.7695004925e+01
 2  2  2     1.2021218851e+01
 2  2  3    -3.8696692100e-02
 2  3  1     6.3498935950e-02
 2  3  2    -1.6431928985e-02
 2  3  3    -6.0957441368e+00
 3  1  1     5.6890326543e-02
 3  1  2     6.3498935950e-02
 3  1  3    -1.0558138555e+01
 3  2  1     6.3498935950e-02
 3  2  2    -1.6431928985e-02
 3  2  3    -6.0957441368e+00
 3  3  1    -9.4155070417e+00
 3  3  2    -5.4360455251e+00
 3  3  3     1.2575850237e-01

   17
0.0000000000e+00 0.0000000000e+00 0.0000000000e+00
-1.2390484091e+00 -2.1460947976e+00 0.0000000000e+00
     1      1      4
 1  1  1     0.0000000000e+00
 1  1  2    -1.4273804884e-02
 1  1  3     6.2980586188e-02
 1  2  1    -7.5469726805e-03
 1  2  2     0.0000000000e+00
 1  2  3     0.0000000000e+00
 1  3  1    -1.2525762350e-02
 1  3  2     0.0000000000e+00
 1  3  3     0.0000000000e+00
 2  1  1    -7.5469726805e-03
 2  1  2     0.0000000000e+00
 2  1  3     0.0000000000e+00
 2  2  1     0.0000000000e+00
 2  2  2    -5.0026987293e-03
 2  2  3     3.7855142794e-02
 2  3  1     0.0000000000e+00
 2  3  2    -6.8182891965e-02
 2  3  3     1.0641610024e-01
 3  1  1    -1.2525762350e-02
 3  1  2     0.0000000000e+00
 3  1  3     0.0000000000e+00
 3  2  1     0.0000000000e+00
 3  2  2    -6.8182891965e-02
 3  2  3     1.0641610024e-01
 3  3  1     0.0000000000e+00
 3  3  2     2.6044385642e-01
 3  3  3    -2.4931879230e-01

   18
0.0000000000e+00 0.0000000000e+00 0.0000000000e+00
0.0000000000e+00 0.0000000000e+00 0.0000000000e+00
     1      2      1
 1  1  1     0.0000000000e+00
 1  1  2     1.6069388558e-02
 1  1  3     7.5655518388e-02
 1  2  1     1.6069388558e-02
 1  2  2     0.0000000000e+00
 1  2  3     0.0000000000e+00
 1  3  1     2.2142043874e-01
 1  3  2     0.0000000000e+00
 1  3  3     0.0000000000e+00
 2  1  1     1.6069388558e-02
 2  1  2     0.0000000000e+00
 2  1  3     0.0000000000e+00
 2  2  1     0.0000000000e+00
 2  2  2    -1.6069388558e-02
 2  2  3     7.5655518388e-02
 2  3  1     0.0000000000e+00
 2  3  2     2.2142043874e-01
 2  3  3     0.0000000000e+00
 3  1  1     7.5655518388e-02
 3  1  2     0.0000000000e+00
 3  1  3     0.0000000000e+00
 3  2  1     0.0000000000e+00
 3  2  2     7.5655518388e-02
 3  2  3     0.0000000000e+00
 3  3  1     0.0000000000e+00
 3  3  2     0.0000000000e+00
 3  3  3    -4.9729901163e-01

   19
0.0000000000e+00 0.0000000000e+00 0.0000000000e+00
0.0000000000e+00 0.0000000000e+00 0.0000000000e+00
     1      2      2
 1  1  1     0.0000000000e+00
 1  1  2    -1.6069388558e-02
 1  1  3    -7.5655518388e-02
 1  2  1    -1.6069388558e-02
 1  2  2     0.0000000000e+00
 1  2  3     0.0000000000e+00
 1  3  1    -7.5655518388e-02
 1  3  2     0.0000000000e+00
 1  3  3     0.0000000000e+00
 2  1  1    -1.6069388558e-02
 2  1  2     0.0000000000e+00
 2  1  3     0.0000000000e+00
 2  2  1     0.0000000000e+00
 2  2  2     1.6069388558e-02
 2  2  3    -7.5655518388e-02
 2  3  1     0.0000000000e+00
 2  3  2    -7.5655518388e-02
 2  3  3     0.0000000000e+00
 3  1  1    -2.2142043874e-01
 3  1  2     0.0000000000e+00
 3  1  3     0.0000000000e+00
 3  2  1     0.0000000000e+00
 3  2  2    -2.2142043874e-01
 3  2  3     0.0000000000e+00
 3  3  1     0.0000000000e+00
 3  3  2     0.0000000000e+00
 3  3  3     4.9729901163e-01

   20
0.0000000000e+00 0.0000000000e+00 0.0000000000e+00
0.0000000000e+00 0.0000000000e+00 0.0000000000e+00
     1      2      3
 1  1  1     0.0000000000e+00
 1  1  2     1.9292244323e-02
 1  1  3    -1.9185004598e-02
 1  2  1    -1.1371290814e-02
 1  2  2     0.0000000000e+00
 1  2  3     0.0000000000e+00
 1  3  1     1.7497529911e-02
 1  3  2     0.0000000000e+00
 1  3  3     0.0000000000e+00
 2  1  1     6.2039170979e-03
 2  1  2     0.0000000000e+00
 2  1  3     0.0000000000e+00
 2  2  1     0.0000000000e+00
 2  2  2     9.3422062023e-03
 2  2  3    -7.7223216347e-03
 2  3  1     0.0000000000e+00
 2  3  2    -1.0344246233e-01
 2  3  3    -3.9122660173e-02
 3  1  1     1.4244852259e-02
 3  1  2     0.0000000000e+00
 3  1  3     0.0000000000e+00
 3  2  1     0.0000000000e+00
 3  2  2    -2.5656495679e-03
 3  2  3     2.7755575616e-14
 3  3  1     0.0000000000e+00
 3  3  2     1.4575505313e-01
 3  3  3    -1.3170442255e-01

   21
0.0000000000e+00 0.0000000000e+00 0.0000000000e+00
0.0000000000e+00 0.0000000000e+00 0.0000000000e+00
     1      2      4
 1  1  1     9.1260651167e-03
 1  1  2     7.8526230097e-03
 1  1  3     1.0587992376e-02
 1  2  1     1.3084593971e-03
 1  2  2    -1.0883303937e-02
 1  2  3    -4.9634873209e-03
 1  3  1    -1.6369758887e-03
 1  3  2     7.2791608160e-03
 1  3  3     2.4037033580e-14
 2  1  1    -7.4791445588e-03
 2  1  2     4.3372725916e-03
 2  1  3    -4.9634873209e-03
 2  2  1     1.5672096462e-02
 2  2  2     6.4646022530e-03
 2  2  3     1.6319333857e-02
 2  3  1     7.2791608160e-03
 2  3  2    -1.0042226802e-02
 2  3  3     1.3877787808e-14
 3  1  1     7.3207464270e-02
 3  1  2     5.2368552807e-02
 3  1  3    -3.3881217574e-02
 3  2  1     5.2368552807e-02
 3  2  2     1.2737468149e-02
 3  2  3    -1.9561330087e-02
 3  3  1     1.2622757874e-01
 3  3  2     7.2877526566e-02
 3  3  3     1.3170442255e-01

   22
0.0000000000e+00 0.0000000000e+00 0.0000000000e+00
-2.4780968182e+00 0.0000000000e+00 0.0000000000e+00
     1      2      4
 1  1  1    -9.1260651167e-03
 1  1  2     7.8526230097e-03
 1  1  3     1.0587992376e-02
 1  2  1     1.3084593971e-03
 1  2  2     1.0883303937e-02
 1  2  3     4.9634873209e-03
 1  3  1    -1.6369758887e-03
 1  3  2    -7.2791608160e-03
 1  3  3    -2.4037033580e-14
 2  1  1    -7.4791445588e-03
 2  1  2    -4.3372725916e-03
 2  1  3     4.9634873209e-03
 2  2  1    -1.5672096462e-02
 2  2  2     6.4646022530e-03
 2  2  3     1.6319333857e-02
 2  3  1    -7.2791608160e-03
 2  3  2    -1.0042226802e-02
 2  3  3     1.3877787808e-14
 3  1  1     7.3207464270e-02
 3  1  2    -5.2368552807e-02
 3  1  3     3.3881217574e-02
 3  2  1    -5.2368552807e-02
 3  2  2     1.2737468149e-02
 3  2  3    -1.9561330087e-02
 3  3  1    -1.2622757874e-01
 3  3  2     7.2877526566e-02
 3  3  3     1.3170442255e-01

   23
0.0000000000e+00 0.0000000000e+00 0.0000000000e+00
1.2390484091e+00 -2.1460947976e+00 0.0000000000e+00
     1      2      3
 1  1  1     9.1260651167e-03
 1  1  2    -7.8526230097e-03
 1  1  3    -1.0587992376e-02
 1  2  1     7.4791445588e-03
 1  2  2     4.3372725916e-03
 1  2  3    -4.9634873209e-03
 1  3  1    -7.3207464270e-02
 1  3  2     5.2368552807e-02
 1  3  3    -3.3881217574e-02
 2  1  1    -1.3084593971e-03
 2  1  2    -1.0883303937e-02
 2  1  3    -4.9634873209e-03
 2  2  1     1.5672096462e-02
 2  2  2    -6.4646022530e-03
 2  2  3    -1.6319333857e-02
 2  3  1     5.2368552807e-02
 2  3  2    -1.2737468149e-02
 2  3  3     1.9561330087e-02
 3  1  1     1.6369758887e-03
 3  1  2     7.2791608160e-03
 3  1  3     2.4037033580e-14
 3  2  1     7.2791608160e-03
 3  2  2     1.0042226802e-02
 3  2  3    -1.3877787808e-14
 3  3  1     1.2622757874e-01
 3  3  2    -7.2877526566e-02
 3  3  3    -1.3170442255e-01

   24
0.0000000000e+00 0.0000000000e+00 0.0000000000e+00
-1.2390484091e+00 -2.1460947976e+00 0.0000000000e+00
     1      2      3
 1  1  1    -9.1260651167e-03
 1  1  2    -7.8526230097e-03
 1  1  3    -1.0587992376e-02
 1  2  1     7.4791445588e-03
 1  2  2    -4.3372725916e-03
 1  2  3     4.9634873209e-03
 1  3  1    -7.3207464270e-02
 1  3  2    -5.2368552807e-02
 1  3  3     3.3881217574e-02
 2  1  1    -1.3084593971e-03
 2  1  2     1.0883303937e-02
 2  1  3     4.9634873209e-03
 2  2  1    -1.5672096462e-02
 2  2  2    -6.4646022530e-03
 2  2  3    -1.6319333857e-02
 2  3  1    -5.2368552807e-02
 2  3  2    -1.2737468149e-02
 2  3  3     1.9561330087e-02
 3  1  1     1.6369758887e-03
 3  1  2    -7.2791608160e-03
 3  1  3    -2.4037033580e-14
 3  2  1    -7.2791608160e-03
 3  2  2     1.0042226802e-02
 3  2  3    -1.3877787808e-14
 3  3  1    -1.2622757874e-01
 3  3  2    -7.2877526566e-02
 3  3  3    -1.3170442255e-01

   25
0.0000000000e+00 0.0000000000e+00 0.0000000000e+00
-1.2390484091e+00 -2.1460947976e+00 0.0000000000e+00
     1      2      4
 1  1  1     0.0000000000e+00
 1  1  2    -1.9292244323e-02
 1  1  3     1.9185004598e-02
 1  2  1    -6.2039170979e-03
 1  2  2     0.0000000000e+00
 1  2  3     0.0000000000e+00
 1  3  1    -1.4244852259e-02
 1  3  2     0.0000000000e+00
 1  3  3     0.0000000000e+00
 2  1  1     1.1371290814e-02
 2  1  2     0.0000000000e+00
 2  1  3     0.0000000000e+00
 2  2  1     0.0000000000e+00
 2  2  2    -9.3422062023e-03
 2  2  3     7.7223216347e-03
 2  3  1     0.0000000000e+00
 2  3  2     2.5656495679e-03
 2  3  3    -2.7755575616e-14
 3  1  1    -1.7497529911e-02
 3  1  2     0.0000000000e+00
 3  1  3     0.0000000000e+00
 3  2  1     0.0000000000e+00
 3  2  2     1.0344246233e-01
 3  2  3     3.9122660173e-02
 3  3  1     0.0000000000e+00
 3  3  2    -1.4575505313e-01
 3  3  3     1.3170442255e-01

   26
0.0000000000e+00 0.0000000000e+00 0.0000000000e+00
0.0000000000e+00 0.0000000000e+00 0.0000000000e+00
     1      3      1
 1  1  1     0.0000000000e+00
 1  1  2     9.7420023891e+00
 1  1  3    -5.3093056749e-02
 1  2  1     6.7926431045e+00
 1  2  2     0.0000000000e+00
 1  2  3     0.0000000000e+00
 1  3  1    -3.1282472022e-02
 1  3  2     0.0000000000e+00
 1  3  3     0.0000000000e+00
 2  1  1     9.7420023891e+00
 2  1  2     0.0000000000e+00
 2  1  3     0.0000000000e+00
 2  2  1     0.0000000000e+00
 2  2  2    -1.7499969446e+02
 2  2  3     9.3551454307e-02
 2  3  1     0.0000000000e+00
 2  3  2    -6.0939352331e-02
 2  3  3     1.2191488274e+01
 3  1  1    -5.3093056749e-02
 3  1  2     0.0000000000e+00
 3  1  3     0.0000000000e+00
 3  2  1     0.0000000000e+00
 3  2  2     9.3551454307e-02
 3  2  3     1.0872091050e+01
 3  3  1     0.0000000000e+00
 3  3  2     1.2191488274e+01
 3  3  3     1.2575850237e-01

   27
0.0000000000e+00 0.0000000000e+00 0.0000000000e+00
0.0000000000e+00 0.0000000000e+00 0.0000000000e+00
     1      3      2
 1  1  1     0.0000000000e+00
 1  1  2    -1.1371290814e-02
 1  1  3     1.7497529911e-02
 1  2  1     1.9292244323e-02
 1  2  2     0.0000000000e+00
 1  2  3     0.0000000000e+00
 1  3  1    -1.9185004598e-02
 1  3  2     0.0000000000e+00
 1  3  3     0.0000000000e+00
 2  1  1     6.2039170979e-03
 2  1  2     0.0000000000e+00
 2  1  3     0.0000000000e+00
 2  2  1     0.0000000000e+00
 2  2  2     9.3422062023e-03
 2  2  3    -1.0344246233e-01
 2  3  1     0.0000000000e+00
 2  3  2    -7.7223216347e-03
 2  3  3    -3.9122660173e-02
 3  1  1     1.4244852259e-02
 3  1  2     0.0000000000e+00
 3  1  3     0.0000000000e+00
 3  2  1     0.0000000000e+00
 3  2  2    -2.5656495679e-03
 3  2  3     1.4575505313e-01
 3  3  1     0.0000000000e+00
 3  3  2     2.7755575616e-14
 3  3  3    -1.3170442255e-01

   28
0.0000000000e+00 0.0000000000e+00 0.0000000000e+00
0.0000000000e+00 0.0000000000e+00 0.0000000000e+00
     1      3      3
 1  1  1     0.0000000000e+00
 1  1  2    -9.2581583483e+00
 1  1  3    -2.4331226553e-02
 1  2  1    -9.2581583483e+00
 1  2  2     0.0000000000e+00
 1  2  3     0.0000000000e+00
 1  3  1    -2.4331226553e-02
 1  3  2     0.0000000000e+00
 1  3  3     0.0000000000e+00
 2  1  1    -5.9389896560e+00
 2  1  2     0.0000000000e+00
 2  1  3     0.0000000000e+00
 2  2  1     0.0000000000e+00
 2  2  2     1.7505303315e+02
 2  2  3     1.4523552808e-02
 2  3  1     0.0000000000e+00
 2  3  2     1.4523552808e-02
 2  3  3    -1.0742127369e+01
 3  1  1    -6.3209659247e-03
 3  1  2     0.0000000000e+00
 3  1  3     0.0000000000e+00
 3  2  1     0.0000000000e+00
 3  2  2    -1.5393497329e-01
 3  2  3    -1.2286667841e+01
 3  3  1     0.0000000000e+00
 3  3  2    -1.2286667841e+01
 3  3  3     1.4102048130e-01

   29
0.0000000000e+00 0.0000000000e+00 0.0000000000e+00
0.0000000000e+00 0.0000000000e+00 0.0000000000e+00
     1      3      4
 1  1  1    -1.1013849247e-02
 1  1  2     4.1825471342e-03
 1  1  3     6.9134932909e-03
 1  2  1    -8.8813709916e-03
 1  2  2    -6.4220420687e-03
 1  2  3    -6.6212247554e-04
 1  3  1     0.0000000000e+00
 1  3  2    -1.1196039052e-02
 1  3  3    -1.3710495562e-02
 2  1  1     6.1596424565e-03
 2  1  2     2.7736711686e-03
 2  1  3     5.3360040874e-03
 2  2  1    -3.0034533837e-03
 2  2  2    -2.7245853560e-02
 2  2  3    -2.4683565296e-02
 2  3  1     2.5387290025e-02
 2  3  2     1.7450805650e-02
 2  3  3    -2.2177682687e-02
 3  1  1    -1.0552160222e-02
 3  1  2    -5.4210108624e-17
 3  1  3     6.6620017884e-03
 3  2  1    -5.8023910198e-02
 3  2  2    -2.0688149972e-02
 3  2  3    -6.4374394884e-04
 3  3  1     2.6405367046e-02
 3  3  2     3.0621625806e-02
 3  3  3    -5.7526427453e-02

   30
0.0000000000e+00 0.0000000000e+00 0.0000000000e+00
2.4780968182e+00 0.0000000000e+00 0.0000000000e+00
     1      3      1
 1  1  1     1.2479212512e+00
 1  1  2     2.7636744353e-01
 1  1  3     9.4126111546e-03
 1  2  1    -1.3643274303e+00
 1  2  2    -1.5417861657e+00
 1  2  3    -6.1932245964e-03
 1  3  1    -3.2648612265e-04
 1  3  2    -8.2119036548e-03
 1  3  3    -7.4086088195e-01
 2  1  1     3.7739622579e-01
 2  1  2     4.6577718434e-01
 2  1  3     6.7272660131e-03
 2  2  1    -1.3797150927e+00
 2  2  2    -1.2806622588e+00
 2  2  3    -2.1883265437e-02
 2  3  1     1.4002680386e-02
 2  3  2     6.3410914018e-03
 2  3  3     1.5391358937e-02
 3  1  1    -1.8781179456e-03
 3  1  2     4.1309239964e-03
 3  1  3     1.2205195129e-01
 3  2  1     1.7261005359e-02
 3  2  2     1.0857261314e-02
 3  2  3    -4.1330447290e-01
 3  3  1     7.2230117130e-01
 3  3  2     4.7283820106e-01
 3  3  3     1.7445171947e-02

   31
0.0000000000e+00 0.0000000000e+00 0.0000000000e+00
2.4780968182e+00 0.0000000000e+00 0.0000000000e+00
     1      3      3
 1  1  1     1.2983366460e+00
 1  1  2    -2.5616210159e-01
 1  1  3     1.4394512282e-02
 1  2  1    -3.5718028554e-01
 1  2  2     4.4443810521e-01
 1  2  3    -8.5351146924e-03
 1  3  1     1.3143954709e-03
 1  3  2    -7.3537189398e-03
 1  3  3     1.1505392244e-01
 2  1  1     1.3624087838e+00
 2  1  2    -1.6130765596e+00
 2  1  3     1.6569762249e-02
 2  2  1    -1.2973000135e+00
 2  2  2     1.1506107371e+00
 2  2  3    -2.1602009002e-02
 2  3  1    -4.4746553087e-03
 2  3  2    -7.2133603542e-03
 2  3  3     3.8903429552e-01
 3  1  1    -9.1994430550e-03
 3  1  2     5.6551665802e-03
 3  1  3    -7.3106807778e-01
 3  2  1     4.9245260690e-03
 3  2  2    -4.4428527849e-03
 3  2  3    -2.5604464572e-02
 3  3  1     7.1717566856e-01
 3  3  2    -4.6881008592e-01
 3  3  3     1.7391433585e-02

   32
0.0000000000e+00 0.0000000000e+00 0.0000000000e+00
-2.4780968182e+00 0.0000000000e+00 0.0000000000e+00
     1      3      1
 1  1  1    -1.2479212512e+00
 1  1  2     2.7636744353e-01
 1  1  3     9.4126111546e-03
 1  2  1    -1.3643274303e+00
 1  2  2     1.5417861657e+00
 1  2  3     6.1932245964e-03
 1  3  1    -3.2648612265e-04
 1  3  2     8.2119036548e-03
 1  3  3     7.4086088195e-01
 2  1  1     3.7739622579e-01
 2  1  2    -4.6577718434e-01
 2  1  3    -6.7272660131e-03
 2  2  1     1.3797150927e+00
 2  2  2    -1.2806622588e+00
 2  2  3    -2.1883265437e-02
 2  3  1    -1.4002680386e-02
 2  3  2     6.3410914018e-03
 2  3  3     1.5391358937e-02
 3  1  1    -1.8781179456e-03
 3  1  2    -4.1309239964e-03
 3  1  3    -1.2205195129e-01
 3  2  1    -1.7261005359e-02
 3  2  2     1.0857261314e-02