   0.17616E+01   0.41638E-03   0.17900E-04
   0.35232E+01   0.15486E-02   0.63899E-04
   0.52848E+01   0.32826E-02   0.12574E-03
   0.70463E+01   0.59107E-02   0.20307E-03
   0.88079E+01   0.10265E-01   0.30615E-03
   0.10570E+02   0.16548E-01   0.41179E-03
   0.12331E+02   0.25226E-01   0.49555E-03
   0.14093E+02   0.38133E-01   0.56198E-03
   0.15854E+02   0.58621E-01   0.60690E-03
   0.17616E+02   0.92263E-01   0.59840E-03
   0.19377E+02   0.17727E+00   0.51054E-03
   0.21139E+02   0.19687E+00   0.40136E-03
   0.22901E+02   0.22107E+00   0.32364E-03
   0.24662E+02   0.13441E+00   0.30523E-03
   0.26424E+02   0.10146E+00   0.34874E-03
   0.28185E+02   0.89832E-01   0.43705E-03
   0.29947E+02   0.57191E-01   0.50299E-03
   0.31709E+02   0.82342E-01   0.71154E-03
   0.33470E+02   0.12917E+00   0.93738E-03
   0.35232E+02   0.83166E-01   0.55982E-03
   0.36993E+02   0.55874E-01   0.35259E-03
   0.38755E+02   0.38675E-01   0.21660E-03
   0.40516E+02   0.25334E-01   0.10906E-03
   0.42278E+02   0.11445E-01   0.20614E-04
   0.44040E+02   0.00000E+00   0.00000E+00
   0.45801E+02   0.00000E+00   0.00000E+00
   0.47563E+02   0.00000E+00   0.00000E+00
   0.49324E+02   0.00000E+00   0.00000E+00
   0.51086E+02   0.00000E+00   0.00000E+00
   0.52848E+02   0.00000E+00   0.00000E+00
   0.54609E+02   0.00000E+00   0.00000E+00
   0.56371E+02   0.00000E+00   0.00000E+00
   0.58132E+02   0.00000E+00   0.00000E+00
   0.59894E+02   0.00000E+00   0.00000E+00
   0.61655E+02   0.00000E+00   0.00000E+00
   0.63417E+02   0.00000E+00   0.00000E+00
   0.65179E+02   0.00000E+00   0.00000E+00
   0.66940E+02   0.00000E+00   0.00000E+00
   0.68702E+02   0.00000E+00   0.00000E+00
   0.70463E+02   0.00000E+00   0.00000E+00
   0.72225E+02   0.00000E+00   0.00000E+00
   0.73987E+02   0.00000E+00   0.00000E+00
   0.75748E+02   0.45155E-04   0.10434E-02
   0.77510E+02   0.23069E-03   0.64052E-02
   0.79271E+02   0.29416E-03   0.98310E-02
   0.81033E+02   0.32664E-03   0.13366E-01
   0.82794E+02   0.32800E-03   0.16455E-01
   0.84556E+02   0.32204E-03   0.20073E-01
   0.86318E+02   0.31238E-03   0.24632E-01
   0.88079E+02   0.28845E-03   0.28927E-01
   0.89841E+02   0.26191E-03   0.34779E-01
   0.91602E+02   0.23147E-03   0.42291E-01
   0.93364E+02   0.19826E-03   0.58581E-01
   0.95126E+02   0.16550E-03   0.57886E-01
   0.96887E+02   0.13760E-03   0.56451E-01
   0.98649E+02   0.11750E-03   0.55388E-01
   0.10041E+03   0.99884E-04   0.53983E-01
   0.10217E+03   0.84352E-04   0.52512E-01
   0.10393E+03   0.74441E-04   0.52118E-01
   0.10570E+03   0.63528E-04   0.50594E-01
   0.10746E+03   0.56715E-04   0.49799E-01
   0.10922E+03   0.49957E-04   0.48953E-01
   0.11098E+03   0.44946E-04   0.48098E-01
   0.11274E+03   0.40982E-04   0.47673E-01
   0.11450E+03   0.37234E-04   0.46218E-01
   0.11626E+03   0.35185E-04   0.47379E-01
   0.11803E+03   0.32275E-04   0.28739E-01
   0.11979E+03   0.32433E-04   0.27012E-01
   0.12155E+03   0.31126E-04   0.25896E-01
   0.12331E+03   0.31882E-04   0.25058E-01
   0.12507E+03   0.31901E-04   0.23492E-01
   0.12683E+03   0.30998E-04   0.21289E-01
   0.12860E+03   0.29446E-04   0.18435E-01
   0.13036E+03   0.27031E-04   0.15859E-01
   0.13212E+03   0.23559E-04   0.13113E-01
   0.13388E+03   0.16447E-04   0.86286E-02
   0.13564E+03   0.75705E-05   0.36532E-02
   0.13740E+03   0.10385E-04   0.45807E-02
   0.13917E+03   0.21745E-04   0.91118E-02
   0.14093E+03   0.36760E-04   0.14251E-01
   0.14269E+03   0.54292E-04   0.19345E-01
   0.14445E+03   0.76815E-04   0.24835E-01
   0.14621E+03   0.10864E-03   0.31186E-01
   0.14797E+03   0.15948E-03   0.39333E-01
   0.14973E+03   0.24134E-03   0.50068E-01
   0.15150E+03   0.41980E-03   0.66979E-01
   0.15326E+03   0.14903E-02   0.12929E+00
   0.15502E+03   0.10150E-02   0.73360E-01
   0.15678E+03   0.12711E-02   0.70367E-01
   0.15854E+03   0.43479E-03   0.40364E-01
   0.16030E+03   0.10002E-08   0.13600E-04
   0.16207E+03   0.00000E+00   0.00000E+00
   0.16383E+03   0.00000E+00   0.00000E+00
   0.16559E+03   0.00000E+00   0.00000E+00
   0.16735E+03   0.00000E+00   0.00000E+00
   0.16911E+03   0.00000E+00   0.00000E+00
   0.17087E+03   0.00000E+00   0.00000E+00
   0.17264E+03   0.00000E+00   0.00000E+00
   0.17440E+03   0.00000E+00   0.00000E+00
   0.17616E+03   0.00000E+00   0.00000E+00
