 2918

    1
0.0000000000e+00 0.0000000000e+00 0.0000000000e+00
0.0000000000e+00 0.0000000000e+00 0.0000000000e+00
     1      1      1
 1  1  1     0.0000000000e+00
 1  1  2     0.0000000000e+00
 1  1  3     0.0000000000e+00
 1  2  1     0.0000000000e+00
 1  2  2     0.0000000000e+00
 1  2  3     0.0000000000e+00
 1  3  1     0.0000000000e+00
 1  3  2     0.0000000000e+00
 1  3  3     0.0000000000e+00
 2  1  1     0.0000000000e+00
 2  1  2     0.0000000000e+00
 2  1  3     0.0000000000e+00
 2  2  1     0.0000000000e+00
 2  2  2     0.0000000000e+00
 2  2  3     0.0000000000e+00
 2  3  1     0.0000000000e+00
 2  3  2     0.0000000000e+00
 2  3  3     0.0000000000e+00
 3  1  1     0.0000000000e+00
 3  1  2     0.0000000000e+00
 3  1  3     0.0000000000e+00
 3  2  1     0.0000000000e+00
 3  2  2     0.0000000000e+00
 3  2  3     0.0000000000e+00
 3  3  1     0.0000000000e+00
 3  3  2     0.0000000000e+00
 3  3  3     0.0000000000e+00

    2
0.0000000000e+00 0.0000000000e+00 0.0000000000e+00
0.0000000000e+00 0.0000000000e+00 0.0000000000e+00
     1      1      2
 1  1  1     1.1273681248e-02
 1  1  2     1.5868931594e-02
 1  1  3     1.5868931594e-02
 1  2  1     1.0618785344e-02
 1  2  2    -1.0618785344e-02
 1  2  3    -2.1326644172e-02
 1  3  1     1.0618785344e-02
 1  3  2    -2.1326644172e-02
 1  3  3    -1.0618785344e-02
 2  1  1     1.0618785344e-02
 2  1  2    -1.0618785344e-02
 2  1  3    -2.1326644172e-02
 2  2  1    -1.5868931594e-02
 2  2  2    -1.1273681248e-02
 2  2  3     1.5868931594e-02
 2  3  1    -2.1326644172e-02
 2  3  2     1.0618785344e-02
 2  3  3     1.0618785344e-02
 3  1  1     1.0618785344e-02
 3  1  2    -2.1326644172e-02
 3  1  3    -1.0618785344e-02
 3  2  1    -2.1326644172e-02
 3  2  2     1.0618785344e-02
 3  2  3     1.0618785344e-02
 3  3  1    -1.5868931594e-02
 3  3  2     1.5868931594e-02
 3  3  3    -1.1273681248e-02

    3
0.0000000000e+00 0.0000000000e+00 0.0000000000e+00
-3.0366743670e+00 0.0000000000e+00 3.0366743670e+00
     1      1      1
 1  1  1     2.3782705170e-02
 1  1  2     0.0000000000e+00
 1  1  3    -1.1257165830e-01
 1  2  1     0.0000000000e+00
 1  2  2    -4.1623233812e-02
 1  2  3     0.0000000000e+00
 1  3  1    -1.1218269925e-01
 1  3  2     0.0000000000e+00
 1  3  3     1.1218269925e-01
 2  1  1     0.0000000000e+00
 2  1  2    -4.1623233812e-02
 2  1  3     0.0000000000e+00
 2  2  1    -5.0703439505e-02
 2  2  2     0.0000000000e+00
 2  2  3     5.0703439505e-02
 2  3  1     0.0000000000e+00
 2  3  2     4.1623233812e-02
 2  3  3     0.0000000000e+00
 3  1  1    -1.1218269925e-01
 3  1  2     0.0000000000e+00
 3  1  3     1.1218269925e-01
 3  2  1     0.0000000000e+00
 3  2  2     4.1623233812e-02
 3  2  3     0.0000000000e+00
 3  3  1     1.1257165830e-01
 3  3  2     0.0000000000e+00
 3  3  3    -2.3782705170e-02

    4
0.0000000000e+00 0.0000000000e+00 0.0000000000e+00
6.0733487340e+00 0.0000000000e+00 -6.0733487340e+00
     1      1      2
 1  1  1    -1.1273681248e-02
 1  1  2     1.5868931594e-02
 1  1  3    -1.5868931594e-02
 1  2  1     1.0618785344e-02
 1  2  2     1.0618785344e-02
 1  2  3    -2.1326644172e-02
 1  3  1    -1.0618785344e-02
 1  3  2    -2.1326644172e-02
 1  3  3     1.0618785344e-02
 2  1  1     1.0618785344e-02
 2  1  2     1.0618785344e-02
 2  1  3    -2.1326644172e-02
 2  2  1     1.5868931594e-02
 2  2  2    -1.1273681248e-02
 2  2  3    -1.5868931594e-02
 2  3  1    -2.1326644172e-02
 2  3  2    -1.0618785344e-02
 2  3  3     1.0618785344e-02
 3  1  1    -1.0618785344e-02
 3  1  2    -2.1326644172e-02
 3  1  3     1.0618785344e-02
 3  2  1    -2.1326644172e-02
 3  2  2    -1.0618785344e-02
 3  2  3     1.0618785344e-02
 3  3  1     1.5868931594e-02
 3  3  2     1.5868931594e-02
 3  3  3     1.1273681248e-02

    5
0.0000000000e+00 0.0000000000e+00 0.0000000000e+00
3.0366743670e+00 0.0000000000e+00 -3.0366743670e+00
     1      1      1
 1  1  1    -2.3782705170e-02
 1  1  2     0.0000000000e+00
 1  1  3     1.1257165830e-01
 1  2  1     0.0000000000e+00
 1  2  2     4.1623233812e-02
 1  2  3     0.0000000000e+00
 1  3  1     1.1218269925e-01
 1  3  2     0.0000000000e+00
 1  3  3    -1.1218269925e-01
 2  1  1     0.0000000000e+00
 2  1  2     4.1623233812e-02
 2  1  3     0.0000000000e+00
 2  2  1     5.0703439505e-02
 2  2  2     0.0000000000e+00
 2  2  3    -5.0703439505e-02
 2  3  1     0.0000000000e+00
 2  3  2    -4.1623233812e-02
 2  3  3     0.0000000000e+00
 3  1  1     1.1218269925e-01
 3  1  2     0.0000000000e+00
 3  1  3    -1.1218269925e-01
 3  2  1     0.0000000000e+00
 3  2  2    -4.1623233812e-02
 3  2  3     0.0000000000e+00
 3  3  1    -1.1257165830e-01
 3  3  2     0.0000000000e+00
 3  3  3     2.3782705170e-02

    6
0.0000000000e+00 0.0000000000e+00 0.0000000000e+00
3.0366743670e+00 0.0000000000e+00 -3.0366743670e+00
     1      1      2
 1  1  1     0.0000000000e+00
 1  1  2     2.9256446731e-01
 1  1  3     0.0000000000e+00
 1  2  1     2.2216538158e-01
 1  2  2     0.0000000000e+00
 1  2  3     0.0000000000e+00
 1  3  1     0.0000000000e+00
 1  3  2     0.0000000000e+00
 1  3  3     0.0000000000e+00
 2  1  1     2.2216538158e-01
 2  1  2     0.0000000000e+00
 2  1  3     0.0000000000e+00
 2  2  1     0.0000000000e+00
 2  2  2    -4.9084351196e+00
 2  2  3     0.0000000000e+00
 2  3  1     0.0000000000e+00
 2  3  2     0.0000000000e+00
 2  3  3     2.2216538158e-01
 3  1  1     0.0000000000e+00
 3  1  2     0.0000000000e+00
 3  1  3     0.0000000000e+00
 3  2  1     0.0000000000e+00
 3  2  2     0.0000000000e+00
 3  2  3     2.2216538158e-01
 3  3  1     0.0000000000e+00
 3  3  2     2.9256446731e-01
 3  3  3     0.0000000000e+00

    7
0.0000000000e+00 0.0000000000e+00 0.0000000000e+00
0.0000000000e+00 3.0366743670e+00 3.0366743670e+00
     1      1      1
 1  1  1     0.0000000000e+00
 1  1  2     5.0703439505e-02
 1  1  3     5.0703439505e-02
 1  2  1     4.1623233812e-02
 1  2  2     0.0000000000e+00
 1  2  3     0.0000000000e+00
 1  3  1     4.1623233812e-02
 1  3  2     0.0000000000e+00
 1  3  3     0.0000000000e+00
 2  1  1     4.1623233812e-02
 2  1  2     0.0000000000e+00
 2  1  3     0.0000000000e+00
 2  2  1     0.0000000000e+00
 2  2  2    -2.3782705170e-02
 2  2  3    -1.1257165830e-01
 2  3  1     0.0000000000e+00
 2  3  2    -1.1218269925e-01
 2  3  3    -1.1218269925e-01
 3  1  1     4.1623233812e-02
 3  1  2     0.0000000000e+00
 3  1  3     0.0000000000e+00
 3  2  1     0.0000000000e+00
 3  2  2    -1.1218269925e-01
 3  2  3    -1.1218269925e-01
 3  3  1     0.0000000000e+00
 3  3  2    -1.1257165830e-01
 3  3  3    -2.3782705170e-02

    8
0.0000000000e+00 0.0000000000e+00 0.0000000000e+00
6.0733487340e+00 3.0366743670e+00 -3.0366743670e+00
     1      1      2
 1  1  1    -1.1431950007e-02
 1  1  2     4.0841714008e-03
 1  1  3     0.0000000000e+00
 1  2  1    -2.1721535300e-03
 1  2  2     8.2832781451e-03
 1  2  3     0.0000000000e+00
 1  3  1     0.0000000000e+00
 1  3  2     0.0000000000e+00
 1  3  3    -3.2190431642e-03
 2  1  1    -2.1721535300e-03
 2  1  2     8.2832781451e-03
 2  1  3     0.0000000000e+00
 2  2  1     2.0238565675e-03
 2  2  2     1.0598149865e-02
 2  2  3     0.0000000000e+00
 2  3  1     0.0000000000e+00
 2  3  2     0.0000000000e+00
 2  3  3    -4.1431880999e-03
 3  1  1     0.0000000000e+00
 3  1  2     0.0000000000e+00
 3  1  3    -3.2190431642e-03
 3  2  1     0.0000000000e+00
 3  2  2     0.0000000000e+00
 3  2  3    -4.1431880999e-03
 3  3  1    -7.8509589832e-03
 3  3  2    -1.1021376733e-02
 3  3  3     0.0000000000e+00

    9
0.0000000000e+00 0.0000000000e+00 0.0000000000e+00
3.0366743670e+00 3.0366743670e+00 0.0000000000e+00
     1      1      1
 1  1  1    -2.3782705170e-02
 1  1  2    -1.1257165830e-01
 1  1  3     0.0000000000e+00
 1  2  1    -1.1218269925e-01
 1  2  2    -1.1218269925e-01
 1  2  3     0.0000000000e+00
 1  3  1     0.0000000000e+00
 1  3  2     0.0000000000e+00
 1  3  3     4.1623233812e-02
 2  1  1    -1.1218269925e-01
 2  1  2    -1.1218269925e-01
 2  1  3     0.0000000000e+00
 2  2  1    -1.1257165830e-01
 2  2  2    -2.3782705170e-02
 2  2  3     0.0000000000e+00
 2  3  1     0.0000000000e+00
 2  3  2     0.0000000000e+00
 2  3  3     4.1623233812e-02
 3  1  1     0.0000000000e+00
 3  1  2     0.0000000000e+00
 3  1  3     4.1623233812e-02
 3  2  1     0.0000000000e+00
 3  2  2     0.0000000000e+00
 3  2  3     4.1623233812e-02
 3  3  1     5.0703439505e-02
 3  3  2     5.0703439505e-02
 3  3  3     0.0000000000e+00

   10
0.0000000000e+00 0.0000000000e+00 0.0000000000e+00
3.0366743670e+00 3.0366743670e+00 0.0000000000e+00
     1      1      2
 1  1  1     0.0000000000e+00
 1  1  2    -1.1021376733e-02
 1  1  3    -7.8509589832e-03
 1  2  1    -4.1431880999e-03
 1  2  2     0.0000000000e+00
 1  2  3     0.0000000000e+00
 1  3  1    -3.2190431642e-03
 1  3  2     0.0000000000e+00
 1  3  3     0.0000000000e+00
 2  1  1    -4.1431880999e-03
 2  1  2     0.0000000000e+00
 2  1  3     0.0000000000e+00
 2  2  1     0.0000000000e+00
 2  2  2     1.0598149865e-02
 2  2  3     2.0238565675e-03
 2  3  1     0.0000000000e+00
 2  3  2     8.2832781451e-03
 2  3  3    -2.1721535300e-03
 3  1  1    -3.2190431642e-03
 3  1  2     0.0000000000e+00
 3  1  3     0.0000000000e+00
 3  2  1     0.0000000000e+00
 3  2  2     8.2832781451e-03
 3  2  3    -2.1721535300e-03
 3  3  1     0.0000000000e+00
 3  3  2     4.0841714008e-03
 3  3  3    -1.1431950007e-02

   11
0.0000000000e+00 0.0000000000e+00 0.0000000000e+00
0.0000000000e+00 -6.0733487340e+00 -6.0733487340e+00
     1      1      2
 1  1  1     1.1273681248e-02
 1  1  2    -1.5868931594e-02
 1  1  3    -1.5868931594e-02
 1  2  1    -1.0618785344e-02
 1  2  2    -1.0618785344e-02
 1  2  3    -2.1326644172e-02
 1  3  1    -1.0618785344e-02
 1  3  2    -2.1326644172e-02
 1  3  3    -1.0618785344e-02
 2  1  1    -1.0618785344e-02
 2  1  2    -1.0618785344e-02
 2  1  3    -2.1326644172e-02
 2  2  1    -1.5868931594e-02
 2  2  2     1.1273681248e-02
 2  2  3    -1.5868931594e-02
 2  3  1    -2.1326644172e-02
 2  3  2    -1.0618785344e-02
 2  3  3    -1.0618785344e-02
 3  1  1    -1.0618785344e-02
 3  1  2    -2.1326644172e-02
 3  1  3    -1.0618785344e-02
 3  2  1    -2.1326644172e-02
 3  2  2    -1.0618785344e-02
 3  2  3    -1.0618785344e-02
 3  3  1    -1.5868931594e-02
 3  3  2    -1.5868931594e-02
 3  3  3     1.1273681248e-02

   12
0.0000000000e+00 0.0000000000e+00 0.0000000000e+00
-3.0366743670e+00 -6.0733487340e+00 -3.0366743670e+00
     1      1      2
 1  1  1    -1.0598149865e-02
 1  1  2    -2.0238565675e-03
 1  1  3     0.0000000000e+00
 1  2  1    -8.2832781451e-03
 1  2  2     2.1721535300e-03
 1  2  3     0.0000000000e+00
 1  3  1     0.0000000000e+00
 1  3  2     0.0000000000e+00
 1  3  3     4.1431880999e-03
 2  1  1    -8.2832781451e-03
 2  1  2     2.1721535300e-03
 2  1  3     0.0000000000e+00
 2  2  1    -4.0841714008e-03
 2  2  2     1.1431950007e-02
 2  2  3     0.0000000000e+00
 2  3  1     0.0000000000e+00
 2  3  2     0.0000000000e+00
 2  3  3     3.2190431642e-03
 3  1  1     0.0000000000e+00
 3  1  2     0.0000000000e+00
 3  1  3     4.1431880999e-03
 3  2  1     0.0000000000e+00
 3  2  2     0.0000000000e+00
 3  2  3     3.2190431642e-03
 3  3  1     1.1021376733e-02
 3  3  2     7.8509589832e-03
 3  3  3     0.0000000000e+00

   13
0.0000000000e+00 0.0000000000e+00 0.0000000000e+00
3.0366743670e+00 -6.0733487340e+00 -9.1100231011e+00
     1      1      2
 1  1  1     0.0000000000e+00
 1  1  2     7.8509589832e-03
 1  1  3     1.1021376733e-02
 1  2  1     3.2190431642e-03
 1  2  2     0.0000000000e+00
 1  2  3     0.0000000000e+00
 1  3  1     4.1431880999e-03
 1  3  2     0.0000000000e+00
 1  3  3     0.0000000000e+00
 2  1  1     3.2190431642e-03
 2  1  2     0.0000000000e+00
 2  1  3     0.0000000000e+00
 2  2  1     0.0000000000e+00
 2  2  2     1.1431950007e-02
 2  2  3    -4.0841714008e-03
 2  3  1     0.0000000000e+00
 2  3  2     2.1721535300e-03
 2  3  3    -8.2832781451e-03
 3  1  1     4.1431880999e-03
 3  1  2     0.0000000000e+00
 3  1  3     0.0000000000e+00
 3  2  1     0.0000000000e+00
 3  2  2     2.1721535300e-03
 3  2  3    -8.2832781451e-03
 3  3  1     0.0000000000e+00
 3  3  2    -2.0238565675e-03
 3  3  3    -1.0598149865e-02

   14
0.0000000000e+00 0.0000000000e+00 0.0000000000e+00
0.0000000000e+00 -3.0366743670e+00 -3.0366743670e+00
     1      1      1
 1  1  1     0.0000000000e+00
 1  1  2    -5.0703439505e-02
 1  1  3    -5.0703439505e-02
 1  2  1    -4.1623233812e-02
 1  2  2     0.0000000000e+00
 1  2  3     0.0000000000e+00
 1  3  1    -4.1623233812e-02
 1  3  2     0.0000000000e+00
 1  3  3     0.0000000000e+00
 2  1  1    -4.1623233812e-02
 2  1  2     0.0000000000e+00
 2  1  3     0.0000000000e+00
 2  2  1     0.0000000000e+00
 2  2  2     2.3782705170e-02
 2  2  3     1.1257165830e-01
 2  3  1     0.0000000000e+00
 2  3  2     1.1218269925e-01
 2  3  3     1.1218269925e-01
 3  1  1    -4.1623233812e-02
 3  1  2     0.0000000000e+00
 3  1  3     0.0000000000e+00
 3  2  1     0.0000000000e+00
 3  2  2     1.1218269925e-01
 3  2  3     1.1218269925e-01
 3  3  1     0.0000000000e+00
 3  3  2     1.1257165830e-01
 3  3  3     2.3782705170e-02

   15
0.0000000000e+00 0.0000000000e+00 0.0000000000e+00
0.0000000000e+00 -3.0366743670e+00 -3.0366743670e+00
     1      1      2
 1  1  1     4.9084351196e+00
 1  1  2     0.0000000000e+00
 1  1  3     0.0000000000e+00
 1  2  1     0.0000000000e+00
 1  2  2    -2.2216538158e-01
 1  2  3     0.0000000000e+00
 1  3  1     0.0000000000e+00
 1  3  2     0.0000000000e+00
 1  3  3    -2.2216538158e-01
 2  1  1     0.0000000000e+00
 2  1  2    -2.2216538158e-01
 2  1  3     0.0000000000e+00
 2  2  1    -2.9256446731e-01
 2  2  2     0.0000000000e+00
 2  2  3     0.0000000000e+00
 2  3  1     0.0000000000e+00
 2  3  2     0.0000000000e+00
 2  3  3     0.0000000000e+00
 3  1  1     0.0000000000e+00
 3  1  2     0.0000000000e+00
 3  1  3    -2.2216538158e-01
 3  2  1     0.0000000000e+00
 3  2  2     0.0000000000e+00
 3  2  3     0.0000000000e+00
 3  3  1    -2.9256446731e-01
 3  3  2     0.0000000000e+00
 3  3  3     0.0000000000e+00

   16
0.0000000000e+00 0.0000000000e+00 0.0000000000e+00
-3.0366743670e+00 -3.0366743670e+00 0.0000000000e+00
     1      1      1
 1  1  1     2.3782705170e-02
 1  1  2     1.1257165830e-01
 1  1  3     0.0000000000e+00
 1  2  1     1.1218269925e-01
 1  2  2     1.1218269925e-01
 1  2  3     0.0000000000e+00
 1  3  1     0.0000000000e+00
 1  3  2     0.0000000000e+00
 1  3  3    -4.1623233812e-02
 2  1  1     1.1218269925e-01
 2  1  2     1.1218269925e-01
 2  1  3     0.0000000000e+00
 2  2  1     1.1257165830e-01
 2  2  2     2.3782705170e-02
 2  2  3     0.0000000000e+00
 2  3  1     0.0000000000e+00
 2  3  2     0.0000000000e+00
 2  3  3    -4.1623233812e-02
 3  1  1     0.0000000000e+00
 3  1  2     0.0000000000e+00
 3  1  3    -4.1623233812e-02
 3  2  1     0.0000000000e+00
 3  2  2     0.0000000000e+00
 3  2  3    -4.1623233812e-02
 3  3  1    -5.0703439505e-02
 3  3  2    -5.0703439505e-02
 3  3  3     0.0000000000e+00

   17
0.0000000000e+00 0.0000000000e+00 0.0000000000e+00
-3.0366743670e+00 -3.0366743670e+00 0.0000000000e+00
     1      1      2
 1  1  1    -1.0598149865e-02
 1  1  2     0.0000000000e+00
 1  1  3     2.0238565675e-03
 1  2  1     0.0000000000e+00
 1  2  2     4.1431880999e-03
 1  2  3     0.0000000000e+00
 1  3  1     8.2832781451e-03
 1  3  2     0.0000000000e+00
 1  3  3     2.1721535300e-03
 2  1  1     0.0000000000e+00
 2  1  2     4.1431880999e-03
 2  1  3     0.0000000000e+00
 2  2  1     1.1021376733e-02
 2  2  2     0.0000000000e+00
 2  2  3    -7.8509589832e-03
 2  3  1     0.0000000000e+00
 2  3  2    -3.2190431642e-03
 2  3  3     0.0000000000e+00
 3  1  1     8.2832781451e-03
 3  1  2     0.0000000000e+00
 3  1  3     2.1721535300e-03
 3  2  1     0.0000000000e+00
 3  2  2    -3.2190431642e-03
 3  2  3     0.0000000000e+00
 3  3  1    -4.0841714008e-03
 3  3  2     0.0000000000e+00
 3  3  3    -1.1431950007e-02

   18
0.0000000000e+00 0.0000000000e+00 0.0000000000e+00
6.0733487340e+00 -3.0366743670e+00 -9.1100231011e+00
     1      1      2
 1  1  1    -1.1431950007e-02
 1  1  2     0.0000000000e+00
 1  1  3    -4.0841714008e-03
 1  2  1     0.0000000000e+00
 1  2  2    -3.2190431642e-03
 1  2  3     0.0000000000e+00
 1  3  1     2.1721535300e-03
 1  3  2     0.0000000000e+00
 1  3  3     8.2832781451e-03
 2  1  1     0.0000000000e+00
 2  1  2    -3.2190431642e-03
 2  1  3     0.0000000000e+00
 2  2  1    -7.8509589832e-03
 2  2  2     0.0000000000e+00
 2  2  3     1.1021376733e-02
 2  3  1     0.0000000000e+00
 2  3  2     4.1431880999e-03
 2  3  3     0.0000000000e+00
 3  1  1     2.1721535300e-03
 3  1  2     0.0000000000e+00
 3  1  3     8.2832781451e-03
 3  2  1     0.0000000000e+00
 3  2  2     4.1431880999e-03
 3  2  3     0.0000000000e+00
 3  3  1     2.0238565675e-03
 3  3  2     0.0000000000e+00
 3  3  3    -1.0598149865e-02

   19
0.0000000000e+00 0.0000000000e+00 0.0000000000e+00
3.0366743670e+00 -3.0366743670e+00 -6.0733487340e+00
     1      1      2
 1  1  1     0.0000000000e+00
 1  1  2     0.0000000000e+00
 1  1  3    -2.9256446731e-01
 1  2  1     0.0000000000e+00
 1  2  2     0.0000000000e+00
 1  2  3     0.0000000000e+00
 1  3  1    -2.2216538158e-01
 1  3  2     0.0000000000e+00
 1  3  3     0.0000000000e+00
 2  1  1     0.0000000000e+00
 2  1  2     0.0000000000e+00
 2  1  3     0.0000000000e+00
 2  2  1     0.0000000000e+00
 2  2  2     0.0000000000e+00
 2  2  3    -2.9256446731e-01
 2  3  1     0.0000000000e+00
 2  3  2    -2.2216538158e-01
 2  3  3     0.0000000000e+00
 3  1  1    -2.2216538158e-01
 3  1  2     0.0000000000e+00
 3  1  3     0.0000000000e+00
 3  2  1     0.0000000000e+00
 3  2  2    -2.2216538158e-01
 3  2  3     0.0000000000e+00
 3  3  1     0.0000000000e+00
 3  3  2     0.0000000000e+00
 3  3  3     4.9084351196e+00

   20
0.0000000000e+00 0.0000000000e+00 0.0000000000e+00
-3.0366743670e+00 3.0366743670e+00 0.0000000000e+00
     1      1      1
 1  1  1     2.3782705170e-02
 1  1  2    -1.1257165830e-01
 1  1  3     0.0000000000e+00
 1  2  1    -1.1218269925e-01
 1  2  2     1.1218269925e-01
 1  2  3     0.0000000000e+00
 1  3  1     0.0000000000e+00
 1  3  2     0.0000000000e+00
 1  3  3    -4.1623233812e-02
 2  1  1    -1.1218269925e-01
 2  1  2     1.1218269925e-01
 2  1  3     0.0000000000e+00
 2  2  1     1.1257165830e-01
 2  2  2    -2.3782705170e-02
 2  2  3     0.0000000000e+00
 2  3  1     0.0000000000e+00
 2  3  2     0.0000000000e+00
 2  3  3     4.1623233812e-02
 3  1  1     0.0000000000e+00
 3  1  2     0.0000000000e+00
 3  1  3    -4.1623233812e-02
 3  2  1     0.0000000000e+00
 3  2  2     0.0000000000e+00
 3  2  3     4.1623233812e-02
 3  3  1    -5.0703439505e-02
 3  3  2     5.0703439505e-02
 3  3  3     0.0000000000e+00

   21
0.0000000000e+00 0.0000000000e+00 0.0000000000e+00
3.0366743670e+00 3.0366743670e+00 -6.0733487340e+00
     1      1      2
 1  1  1     0.0000000000e+00
 1  1  2    -1.1021376733e-02
 1  1  3     7.8509589832e-03
 1  2  1    -4.1431880999e-03
 1  2  2     0.0000000000e+00
 1  2  3     0.0000000000e+00
 1  3  1     3.2190431642e-03
 1  3  2     0.0000000000e+00
 1  3  3     0.0000000000e+00
 2  1  1    -4.1431880999e-03
 2  1  2     0.0000000000e+00
 2  1  3     0.0000000000e+00
 2  2  1     0.0000000000e+00
 2  2  2     1.0598149865e-02
 2  2  3    -2.0238565675e-03
 2  3  1     0.0000000000e+00
 2  3  2    -8.2832781451e-03
 2  3  3    -2.1721535300e-03
 3  1  1     3.2190431642e-03
 3  1  2     0.0000000000e+00
 3  1  3     0.0000000000e+00
 3  2  1     0.0000000000e+00
 3  2  2    -8.2832781451e-03
 3  2  3    -2.1721535300e-03
 3  3  1     0.0000000000e+00
 3  3  2     4.0841714008e-03
 3  3  3     1.1431950007e-02

   22
0.0000000000e+00 0.0000000000e+00 0.0000000000e+00
0.0000000000e+00 3.0366743670e+00 -3.0366743670e+00
     1      1      1
 1  1  1     0.0000000000e+00
 1  1  2     5.0703439505e-02
 1  1  3    -5.0703439505e-02
 1  2  1     4.1623233812e-02
 1  2  2     0.0000000000e+00
 1  2  3     0.0000000000e+00
 1  3  1    -4.1623233812e-02
 1  3  2     0.0000000000e+00
 1  3  3     0.0000000000e+00
 2  1  1     4.1623233812e-02
 2  1  2     0.0000000000e+00
 2  1  3     0.0000000000e+00
 2  2  1     0.0000000000e+00
 2  2  2    -2.3782705170e-02
 2  2  3     1.1257165830e-01
 2  3  1     0.0000000000e+00
 2  3  2     1.1218269925e-01
 2  3  3    -1.1218269925e-01
 3  1  1    -4.1623233812e-02
 3  1  2     0.0000000000e+00
 3  1  3     0.0000000000e+00
 3  2  1     0.0000000000e+00
 3  2  2     1.1218269925e-01
 3  2  3    -1.1218269925e-01
 3  3  1     0.0000000000e+00
 3  3  2    -1.1257165830e-01
 3  3  3     2.3782705170e-02

   23
0.0000000000e+00 0.0000000000e+00 0.0000000000e+00
0.0000000000e+00 3.0366743670e+00 -3.0366743670e+00
     1      1      2
 1  1  1     1.1431950007e-02
 1  1  2     4.0841714008e-03
 1  1  3     0.0000000000e+00
 1  2  1    -2.1721535300e-03
 1  2  2    -8.2832781451e-03
 1  2  3     0.0000000000e+00
 1  3  1     0.0000000000e+00
 1  3  2     0.0000000000e+00
 1  3  3     3.2190431642e-03
 2  1  1    -2.1721535300e-03
 2  1  2    -8.2832781451e-03
 2  1  3     0.0000000000e+00
 2  2  1    -2.0238565675e-03
 2  2  2     1.0598149865e-02
 2  2  3     0.0000000000e+00
 2  3  1     0.0000000000e+00
 2  3  2     0.0000000000e+00
 2  3  3    -4.1431880999e-03
 3  1  1     0.0000000000e+00
 3  1  2     0.0000000000e+00
 3  1  3     3.2190431642e-03
 3  2  1     0.0000000000e+00
 3  2  2     0.0000000000e+00
 3  2  3    -4.1431880999e-03
 3  3  1     7.8509589832e-03
 3  3  2    -1.1021376733e-02
 3  3  3     0.0000000000e+00

   24
0.0000000000e+00 0.0000000000e+00 0.0000000000e+00
0.0000000000e+00 6.0733487340e+00 0.0000000000e+00
     1      1      1
 1  1  1     0.0000000000e+00
 1  1  2     2.8704761213e-02
 1  1  3     0.0000000000e+00
 1  2  1     8.6321296628e-03
 1  2  2     0.0000000000e+00
 1  2  3     0.0000000000e+00
 1  3  1     0.0000000000e+00
 1  3  2     0.0000000000e+00
 1  3  3     0.0000000000e+00
 2  1  1     8.6321296628e-03
 2  1  2     0.0000000000e+00
 2  1  3     0.0000000000e+00
 2  2  1     0.0000000000e+00
 2  2  2    -4.0494876371e-02
 2  2  3     0.0000000000e+00
 2  3  1     0.0000000000e+00
 2  3  2     0.0000000000e+00
 2  3  3     8.6321296628e-03
 3  1  1     0.0000000000e+00
 3  1  2     0.0000000000e+00
 3  1  3     0.0000000000e+00
 3  2  1     0.0000000000e+00
 3  2  2     0.0000000000e+00
 3  2  3     8.6321296628e-03
 3  3  1     0.0000000000e+00
 3  3  2     2.8704761213e-02
 3  3  3     0.0000000000e+00

   25
0.0000000000e+00 0.0000000000e+00 0.0000000000e+00
-3.0366743670e+00 -3.0366743670e+00 -6.0733487340e+00
     1      1      2
 1  1  1    -1.0598149865e-02
 1  1  2     0.0000000000e+00
 1  1  3    -2.0238565675e-03
 1  2  1     0.0000000000e+00
 1  2  2     4.1431880999e-03
 1  2  3     0.0000000000e+00
 1  3  1    -8.2832781451e-03
 1  3  2     0.0000000000e+00
 1  3  3     2.1721535300e-03
 2  1  1     0.0000000000e+00
 2  1  2     4.1431880999e-03
 2  1  3     0.0000000000e+00
 2  2  1     1.1021376733e-02
 2  2  2     0.0000000000e+00
 2  2  3     7.8509589832e-03
 2  3  1     0.0000000000e+00
 2  3  2     3.2190431642e-03
 2  3  3     0.0000000000e+00
 3  1  1    -8.2832781451e-03
 3  1  2     0.0000000000e+00
 3  1  3     2.1721535300e-03
 3  2  1     0.0000000000e+00
 3  2  2     3.2190431642e-03
 3  2  3     0.0000000000e+00
 3  3  1    -4.0841714008e-03
 3  3  2     0.0000000000e+00
 3  3  3     1.1431950007e-02

   26
0.0000000000e+00 0.0000000000e+00 0.0000000000e+00
0.0000000000e+00 -3.0366743670e+00 -9.1100231011e+00
     1      1      2
 1  1  1     1.1431950007e-02
 1  1  2     0.0000000000e+00
 1  1  3    -4.0841714008e-03
 1  2  1     0.0000000000e+00
 1  2  2     3.2190431642e-03
 1  2  3     0.0000000000e+00
 1  3  1     2.1721535300e-03
 1  3  2     0.0000000000e+00
 1  3  3    -8.2832781451e-03
 2  1  1     0.0000000000e+00
 2  1  2     3.2190431642e-03
 2  1  3     0.0000000000e+00
 2  2  1     7.8509589832e-03
 2  2  2     0.0000000000e+00
 2  2  3     1.1021376733e-02
 2  3  1     0.0000000000e+00
 2  3  2     4.1431880999e-03
 2  3  3     0.0000000000e+00
 3  1  1     2.1721535300e-03
 3  1  2     0.0000000000e+00
 3  1  3    -8.2832781451e-03
 3  2  1     0.0000000000e+00
 3  2  2     4.1431880999e-03
 3  2  3     0.0000000000e+00
 3  3  1    -2.0238565675e-03
 3  3  2     0.0000000000e+00
 3  3  3    -1.0598149865e-02

   27
0.0000000000e+00 0.0000000000e+00 0.0000000000e+00
-3.0366743670e+00 0.0000000000e+00 -3.0366743670e+00
     1      1      1
 1  1  1     2.3782705170e-02
 1  1  2     0.0000000000e+00
 1  1  3     1.1257165830e-01
 1  2  1     0.0000000000e+00
 1  2  2    -4.1623233812e-02
 1  2  3     0.0000000000e+00
 1  3  1     1.1218269925e-01
 1  3  2     0.0000000000e+00
 1  3  3     1.1218269925e-01
 2  1  1     0.0000000000e+00
 2  1  2    -4.1623233812e-02
 2  1  3     0.0000000000e+00
 2  2  1    -5.0703439505e-02
 2  2  2     0.0000000000e+00
 2  2  3    -5.0703439505e-02
 2  3  1     0.0000000000e+00
 2  3  2    -4.1623233812e-02
 2  3  3     0.0000000000e+00
 3  1  1     1.1218269925e-01
 3  1  2     0.0000000000e+00
 3  1  3     1.1218269925e-01
 3  2  1     0.0000000000e+00
 3  2  2    -4.1623233812e-02
 3  2  3     0.0000000000e+00
 3  3  1     1.1257165830e-01
 3  3  2     0.0000000000e+00
 3  3  3     2.3782705170e-02

   28
0.0000000000e+00 0.0000000000e+00 0.0000000000e+00
-3.0366743670e+00 0.0000000000e+00 -3.0366743670e+00
     1      1      2
 1  1  1    -1.0598149865e-02
 1  1  2     2.0238565675e-03
 1  1  3     0.0000000000e+00
 1  2  1     8.2832781451e-03
 1  2  2     2.1721535300e-03
 1  2  3     0.0000000000e+00
 1  3  1     0.0000000000e+00
 1  3  2     0.0000000000e+00
 1  3  3     4.1431880999e-03
 2  1  1     8.2832781451e-03
 2  1  2     2.1721535300e-03
 2  1  3     0.0000000000e+00
 2  2  1    -4.0841714008e-03
 2  2  2    -1.1431950007e-02
 2  2  3     0.0000000000e+00
 2  3  1     0.0000000000e+00
 2  3  2     0.0000000000e+00
 2  3  3    -3.2190431642e-03
 3  1  1     0.0000000000e+00
 3  1  2     0.0000000000e+00
 3  1  3     4.1431880999e-03
 3  2  1     0.0000000000e+00
 3  2  2     0.0000000000e+00
 3  2  3    -3.2190431642e-03
 3  3  1     1.1021376733e-02
 3  3  2    -7.8509589832e-03
 3  3  3     0.0000000000e+00

   29
0.0000000000e+00 0.0000000000e+00 0.0000000000e+00
-6.0733487340e+00 0.0000000000e+00 0.0000000000e+00
     1      1      1
 1  1  1     4.0494876371e-02
 1  1  2     0.0000000000e+00
 1  1  3     0.0000000000e+00
 1  2  1     0.0000000000e+00
 1  2  2    -8.6321296628e-03
 1  2  3     0.0000000000e+00
 1  3  1     0.0000000000e+00
 1  3  2     0.0000000000e+00
 1  3  3    -8.6321296628e-03
 2  1  1     0.0000000000e+00
 2  1  2    -8.6321296628e-03
 2  1  3     0.0000000000e+00
 2  2  1    -2.8704761213e-02
 2  2  2     0.0000000000e+00
 2  2  3     0.0000000000e+00
 2  3  1     0.0000000000e+00
 2  3  2     0.0000000000e+00
 2  3  3     0.0000000000e+00
 3  1  1     0.0000000000e+00
 3  1  2     0.0000000000e+00
 3  1  3    -8.6321296628e-03
 3  2  1     0.0000000000e+00
 3  2  2     0.0000000000e+00
 3  2  3     0.0000000000e+00
 3  3  1    -2.8704761213e-02
 3  3  2     0.0000000000e+00
 3  3  3     0.0000000000e+00

   30
0.0000000000e+00 0.0000000000e+00 0.0000000000e+00
3.0366743670e+00 0.0000000000e+00 -9.1100231011e+00
     1      1      2
 1  1  1     0.0000000000e+00
 1  1  2    -7.8509589832e-03
 1  1  3     1.1021376733e-02
 1  2  1    -3.2190431642e-03
 1  2  2     0.0000000000e+00
 1  2  3     0.0000000000e+00
 1  3  1     4.1431880999e-03
 1  3  2     0.0000000000e+00
 1  3  3     0.0000000000e+00
 2  1  1    -3.2190431642e-03
 2  1  2     0.0000000000e+00
 2  1  3     0.0000000000e+00
 2  2  1     0.0000000000e+00
 2  2  2    -1.1431950007e-02
 2  2  3    -4.0841714008e-03
 2  3  1     0.0000000000e+00
 2  3  2     2.1721535300e-03
 2  3  3     8.2832781451e-03
 3  1  1     4.1431880999e-03
 3  1  2     0.0000000000e+00
 3  1  3     0.0000000000e+00
 3  2  1     0.0000000000e+00
 3  2  2     2.1721535300e-03
 3  2  3     8.2832781451e-03
 3  3  1     0.0000000000e+00
 3  3  2     2.0238565675e-03
 3  3  3    -1.0598149865e-02

   31
0.0000000000e+00 0.0000000000e+00 0.0000000000e+00
0.0000000000e+00 0.0000000000e+00 -6.0733487340e+00
     1      1      1
 1  1  1     0.0000000000e+00
 1  1  2     0.0000000000e+00
 1  1  3    -2.8704761213e-02
 1  2  1     0.0000000000e+00
 1  2  2     0.0000000000e+00
 1  2  3     0.0000000000e+00
 1  3  1    -8.6321296628e-03
 1  3  2     0.0000000000e+00
 1  3  3     0.0000000000e+00
 2  1  1     0.0000000000e+00
 2  1  2     0.0000000000e+00
 2  1  3     0.0000000000e+00
 2  2  1     0.0000000000e+00
 2  2  2     0.0000000000e+00
 2  2  3    -2.8704761213e-02
 2  3  1     0.0000000000e+00
 2  3  2    -8.6321296628e-03
 2  3  3     0.0000000000e+00
 3  1  1    -8.6321296628e-03
 3  1  2     0.0000000000e+00
 3  1  3     0.0000000000e+00
 3  2  1     0.0000000000e+00
 3  2  2    -8.6321296628e-03
 3  2  3     0.0000000000e+00
 3  3  1     0.0000000000e+00
 3  3  2     0.0000000000e+00
 3  3  3     4.0494876371e-02

   32
0.0000000000e+00 0.0000000000e+00 0.0000000000e+00
0.0000000000e+00 0.0000000000e+00 -6.0733487340e+00
     1      1      2
 1  1  1     1.1273681248e-02
 1  1  2     1.5868931594e-02
 1  1  3    -1.5868931594e-02
 1  2  1     1.0618785344e-02
 1  2  2    -1.0618785344e-02
 1  2  3     2.1326644172e-02
 1  3  1    -1.0618785344e-02
 1  3  2     2.1326644172e-02
 1  3  3    -1.0618785344e-02
 2  1  1     1.0618785344e-02
 2  1  2    -1.0618785344e-02
 2  1  3     2.1326644172e-02
 2  2  1    -1.5868931594e-02
 2  2  2    -1.1273681248e-02
 2  2  3    -1.5868931594e-02
 2  3  1     2.1326644172e-02
 2  3  2    -1.0618785344e-02
 2  3  3     1.0618785344e-02
 3  1  1    -1.0618785344e-02
 3  1  2     2.1326644172e-02
 3  1  3    -1.0618785344e-02
 3  2  1     2.1326644172e-02