   0.15303E+01   0.23999E-02   0.59167E-04
   0.30605E+01   0.74038E-02   0.16644E-03
   0.45908E+01   0.14972E-01   0.29716E-03
   0.61211E+01   0.21396E-01   0.36860E-03
   0.76513E+01   0.33979E-01   0.49155E-03
   0.91816E+01   0.49199E-01   0.58041E-03
   0.10712E+02   0.79633E-01   0.69586E-03
   0.12242E+02   0.15144E+00   0.81299E-03
   0.13772E+02   0.32817E+00   0.79516E-03
   0.15303E+02   0.33001E+00   0.89023E-03
   0.16833E+02   0.14541E+00   0.42706E-03
   0.18363E+02   0.13182E+00   0.38351E-03
   0.19893E+02   0.12180E+00   0.38627E-03
   0.21424E+02   0.81349E-01   0.48265E-03
   0.22954E+02   0.27506E+00   0.73751E-03
   0.24484E+02   0.12551E+00   0.26165E-03
   0.26015E+02   0.44618E-01   0.51861E-04
   0.27545E+02   0.00000E+00   0.00000E+00
   0.29075E+02   0.00000E+00   0.00000E+00
   0.30605E+02   0.00000E+00   0.00000E+00
   0.32136E+02   0.00000E+00   0.00000E+00
   0.33666E+02   0.00000E+00   0.00000E+00
   0.35196E+02   0.00000E+00   0.00000E+00
   0.36726E+02   0.00000E+00   0.00000E+00
   0.38257E+02   0.00000E+00   0.00000E+00
   0.39787E+02   0.00000E+00   0.00000E+00
   0.41317E+02   0.00000E+00   0.00000E+00
   0.42848E+02   0.00000E+00   0.00000E+00
   0.44378E+02   0.00000E+00   0.00000E+00
   0.45908E+02   0.00000E+00   0.00000E+00
   0.47438E+02   0.00000E+00   0.00000E+00
   0.48969E+02   0.00000E+00   0.00000E+00
   0.50499E+02   0.00000E+00   0.00000E+00
   0.52029E+02   0.00000E+00   0.00000E+00
   0.53559E+02   0.00000E+00   0.00000E+00
   0.55090E+02   0.00000E+00   0.00000E+00
   0.56620E+02   0.00000E+00   0.00000E+00
   0.58150E+02   0.00000E+00   0.00000E+00
   0.59680E+02   0.00000E+00   0.00000E+00
   0.61211E+02   0.00000E+00   0.00000E+00
   0.62741E+02   0.00000E+00   0.00000E+00
   0.64271E+02   0.00000E+00   0.00000E+00
   0.65802E+02   0.00000E+00   0.00000E+00
   0.67332E+02   0.00000E+00   0.00000E+00
   0.68862E+02   0.00000E+00   0.00000E+00
   0.70392E+02   0.00000E+00   0.00000E+00
   0.71923E+02   0.00000E+00   0.00000E+00
   0.73453E+02   0.00000E+00   0.00000E+00
   0.74983E+02   0.00000E+00   0.00000E+00
   0.76513E+02   0.19970E-03   0.85820E-02
   0.78044E+02   0.36535E-03   0.19134E-01
   0.79574E+02   0.40730E-03   0.26503E-01
   0.81104E+02   0.47472E-03   0.38581E-01
   0.82634E+02   0.46844E-03   0.50228E-01
   0.84165E+02   0.47346E-03   0.70150E-01
   0.85695E+02   0.44578E-03   0.10116E+00
   0.87225E+02   0.39625E-03   0.17228E+00
   0.88756E+02   0.35091E-03   0.15882E+00
   0.90286E+02   0.36567E-03   0.15520E+00
   0.91816E+02   0.19179E-03   0.10074E+00
   0.93346E+02   0.11712E-03   0.77930E-01
   0.94877E+02   0.75545E-04   0.64784E-01
   0.96407E+02   0.49959E-04   0.56299E-01
   0.97937E+02   0.33605E-04   0.50362E-01
   0.99467E+02   0.20331E-04   0.43514E-01
   0.10100E+03   0.12611E-04   0.37077E-01
   0.10253E+03   0.72666E-05   0.30318E-01
   0.10406E+03   0.44524E-05   0.21536E-01
   0.10559E+03   0.28908E-05   0.12316E-01
   0.10712E+03   0.22286E-05   0.78079E-02
   0.10865E+03   0.26637E-05   0.67922E-02
   0.11018E+03   0.68009E-05   0.11504E-01
   0.11171E+03   0.14945E-04   0.17836E-01
   0.11324E+03   0.26813E-04   0.23751E-01
   0.11477E+03   0.46456E-04   0.31364E-01
   0.11630E+03   0.45397E-04   0.28072E-01
   0.11783E+03   0.48891E-04   0.28221E-01
   0.11936E+03   0.55494E-04   0.28064E-01
   0.12089E+03   0.65920E-04   0.29573E-01
   0.12242E+03   0.78619E-04   0.31113E-01
   0.12395E+03   0.93869E-04   0.31848E-01
   0.12548E+03   0.11356E-03   0.34271E-01
   0.12701E+03   0.13748E-03   0.35939E-01
   0.12854E+03   0.16850E-03   0.37511E-01
   0.13007E+03   0.20706E-03   0.40223E-01
   0.13160E+03   0.25483E-03   0.43202E-01
   0.13313E+03   0.31887E-03   0.46278E-01
   0.13466E+03   0.40000E-03   0.48572E-01
   0.13619E+03   0.51303E-03   0.53641E-01
   0.13772E+03   0.60707E-03   0.34837E-01
   0.13925E+03   0.00000E+00   0.00000E+00
   0.14078E+03   0.00000E+00   0.00000E+00
   0.14231E+03   0.00000E+00   0.00000E+00
   0.14385E+03   0.00000E+00   0.00000E+00
   0.14538E+03   0.00000E+00   0.00000E+00
   0.14691E+03   0.00000E+00   0.00000E+00
   0.14844E+03   0.00000E+00   0.00000E+00
   0.14997E+03   0.00000E+00   0.00000E+00
   0.15150E+03   0.00000E+00   0.00000E+00
   0.15303E+03   0.00000E+00   0.00000E+00
