 2918

    1
0.0000000000e+00 0.0000000000e+00 0.0000000000e+00
0.0000000000e+00 0.0000000000e+00 0.0000000000e+00
     1      1      1
 1  1  1     0.0000000000e+00
 1  1  2     0.0000000000e+00
 1  1  3     0.0000000000e+00
 1  2  1     0.0000000000e+00
 1  2  2     0.0000000000e+00
 1  2  3     0.0000000000e+00
 1  3  1     0.0000000000e+00
 1  3  2     0.0000000000e+00
 1  3  3     0.0000000000e+00
 2  1  1     0.0000000000e+00
 2  1  2     0.0000000000e+00
 2  1  3     0.0000000000e+00
 2  2  1     0.0000000000e+00
 2  2  2     0.0000000000e+00
 2  2  3     0.0000000000e+00
 2  3  1     0.0000000000e+00
 2  3  2     0.0000000000e+00
 2  3  3     0.0000000000e+00
 3  1  1     0.0000000000e+00
 3  1  2     0.0000000000e+00
 3  1  3     0.0000000000e+00
 3  2  1     0.0000000000e+00
 3  2  2     0.0000000000e+00
 3  2  3     0.0000000000e+00
 3  3  1     0.0000000000e+00
 3  3  2     0.0000000000e+00
 3  3  3     0.0000000000e+00

    2
0.0000000000e+00 0.0000000000e+00 0.0000000000e+00
0.0000000000e+00 0.0000000000e+00 0.0000000000e+00
     1      1      2
 1  1  1     0.0000000000e+00
 1  1  2     1.6861505034e-02
 1  1  3     1.6861505034e-02
 1  2  1     1.7636793528e-02
 1  2  2    -1.7636793528e-02
 1  2  3    -3.7946408204e-02
 1  3  1     1.7636793528e-02
 1  3  2    -3.7946408204e-02
 1  3  3    -1.7636793528e-02
 2  1  1     1.7636793528e-02
 2  1  2    -1.7636793528e-02
 2  1  3    -3.7946408204e-02
 2  2  1    -1.6861505034e-02
 2  2  2     0.0000000000e+00
 2  2  3     1.6861505034e-02
 2  3  1    -3.7946408204e-02
 2  3  2     1.7636793528e-02
 2  3  3     1.7636793528e-02
 3  1  1     1.7636793528e-02
 3  1  2    -3.7946408204e-02
 3  1  3    -1.7636793528e-02
 3  2  1    -3.7946408204e-02
 3  2  2     1.7636793528e-02
 3  2  3     1.7636793528e-02
 3  3  1    -1.6861505034e-02
 3  3  2     1.6861505034e-02
 3  3  3     0.0000000000e+00

    3
0.0000000000e+00 0.0000000000e+00 0.0000000000e+00
-2.8013293872e+00 0.0000000000e+00 2.8013293872e+00
     1      1      1
 1  1  1     7.0062563881e-02
 1  1  2     0.0000000000e+00
 1  1  3    -1.1218004760e-01
 1  2  1     0.0000000000e+00
 1  2  2    -7.6594620732e-02
 1  2  3     0.0000000000e+00
 1  3  1    -1.6713557348e-01
 1  3  2     0.0000000000e+00
 1  3  3     1.6713557348e-01
 2  1  1     0.0000000000e+00
 2  1  2    -7.6594620732e-02
 2  1  3     0.0000000000e+00
 2  2  1    -5.6612936296e-02
 2  2  2     0.0000000000e+00
 2  2  3     5.6612936296e-02
 2  3  1     0.0000000000e+00
 2  3  2     7.6594620732e-02
 2  3  3     0.0000000000e+00
 3  1  1    -1.6713557348e-01
 3  1  2     0.0000000000e+00
 3  1  3     1.6713557348e-01
 3  2  1     0.0000000000e+00
 3  2  2     7.6594620732e-02
 3  2  3     0.0000000000e+00
 3  3  1     1.1218004760e-01
 3  3  2     0.0000000000e+00
 3  3  3    -7.0062563881e-02

    4
0.0000000000e+00 0.0000000000e+00 0.0000000000e+00
5.6026587743e+00 0.0000000000e+00 -5.6026587743e+00
     1      1      2
 1  1  1     0.0000000000e+00
 1  1  2     1.6861505034e-02
 1  1  3    -1.6861505034e-02
 1  2  1     1.7636793528e-02
 1  2  2     1.7636793528e-02
 1  2  3    -3.7946408204e-02
 1  3  1    -1.7636793528e-02
 1  3  2    -3.7946408204e-02
 1  3  3     1.7636793528e-02
 2  1  1     1.7636793528e-02
 2  1  2     1.7636793528e-02
 2  1  3    -3.7946408204e-02
 2  2  1     1.6861505034e-02
 2  2  2     0.0000000000e+00
 2  2  3    -1.6861505034e-02
 2  3  1    -3.7946408204e-02
 2  3  2    -1.7636793528e-02
 2  3  3     1.7636793528e-02
 3  1  1    -1.7636793528e-02
 3  1  2    -3.7946408204e-02
 3  1  3     1.7636793528e-02
 3  2  1    -3.7946408204e-02
 3  2  2    -1.7636793528e-02
 3  2  3     1.7636793528e-02
 3  3  1     1.6861505034e-02
 3  3  2     1.6861505034e-02
 3  3  3     0.0000000000e+00

    5
0.0000000000e+00 0.0000000000e+00 0.0000000000e+00
2.8013293872e+00 0.0000000000e+00 -2.8013293872e+00
     1      1      1
 1  1  1    -7.0062563881e-02
 1  1  2     0.0000000000e+00
 1  1  3     1.1218004760e-01
 1  2  1     0.0000000000e+00
 1  2  2     7.6594620732e-02
 1  2  3     0.0000000000e+00
 1  3  1     1.6713557348e-01
 1  3  2     0.0000000000e+00
 1  3  3    -1.6713557348e-01
 2  1  1     0.0000000000e+00
 2  1  2     7.6594620732e-02
 2  1  3     0.0000000000e+00
 2  2  1     5.6612936296e-02
 2  2  2     0.0000000000e+00
 2  2  3    -5.6612936296e-02
 2  3  1     0.0000000000e+00
 2  3  2    -7.6594620732e-02
 2  3  3     0.0000000000e+00
 3  1  1     1.6713557348e-01
 3  1  2     0.0000000000e+00
 3  1  3    -1.6713557348e-01
 3  2  1     0.0000000000e+00
 3  2  2    -7.6594620732e-02
 3  2  3     0.0000000000e+00
 3  3  1    -1.1218004760e-01
 3  3  2     0.0000000000e+00
 3  3  3     7.0062563881e-02

    6
0.0000000000e+00 0.0000000000e+00 0.0000000000e+00
2.8013293872e+00 0.0000000000e+00 -2.8013293872e+00
     1      1      2
 1  1  1     0.0000000000e+00
 1  1  2     8.9385726773e-02
 1  1  3     0.0000000000e+00
 1  2  1     7.9198925426e-03
 1  2  2     0.0000000000e+00
 1  2  3     0.0000000000e+00
 1  3  1     0.0000000000e+00
 1  3  2     0.0000000000e+00
 1  3  3     0.0000000000e+00
 2  1  1     7.9198925426e-03
 2  1  2     0.0000000000e+00
 2  1  3     0.0000000000e+00
 2  2  1     0.0000000000e+00
 2  2  2    -2.0232471499e+00
 2  2  3     0.0000000000e+00
 2  3  1     0.0000000000e+00
 2  3  2     0.0000000000e+00
 2  3  3     7.9198925426e-03
 3  1  1     0.0000000000e+00
 3  1  2     0.0000000000e+00
 3  1  3     0.0000000000e+00
 3  2  1     0.0000000000e+00
 3  2  2     0.0000000000e+00
 3  2  3     7.9198925426e-03
 3  3  1     0.0000000000e+00
 3  3  2     8.9385726773e-02
 3  3  3     0.0000000000e+00

    7
0.0000000000e+00 0.0000000000e+00 0.0000000000e+00
0.0000000000e+00 2.8013293872e+00 2.8013293872e+00
     1      1      1
 1  1  1     0.0000000000e+00
 1  1  2     5.6612936296e-02
 1  1  3     5.6612936296e-02
 1  2  1     7.6594620732e-02
 1  2  2     0.0000000000e+00
 1  2  3     0.0000000000e+00
 1  3  1     7.6594620732e-02
 1  3  2     0.0000000000e+00
 1  3  3     0.0000000000e+00
 2  1  1     7.6594620732e-02
 2  1  2     0.0000000000e+00
 2  1  3     0.0000000000e+00
 2  2  1     0.0000000000e+00
 2  2  2    -7.0062563881e-02
 2  2  3    -1.1218004760e-01
 2  3  1     0.0000000000e+00
 2  3  2    -1.6713557348e-01
 2  3  3    -1.6713557348e-01
 3  1  1     7.6594620732e-02
 3  1  2     0.0000000000e+00
 3  1  3     0.0000000000e+00
 3  2  1     0.0000000000e+00
 3  2  2    -1.6713557348e-01
 3  2  3    -1.6713557348e-01
 3  3  1     0.0000000000e+00
 3  3  2    -1.1218004760e-01
 3  3  3    -7.0062563881e-02

    8
0.0000000000e+00 0.0000000000e+00 0.0000000000e+00
5.6026587743e+00 2.8013293872e+00 -2.8013293872e+00
     1      1      2
 1  1  1    -6.1786376522e-03
 1  1  2     7.3293393170e-03
 1  1  3     0.0000000000e+00
 1  2  1    -5.5415967104e-03
 1  2  2     1.6547109522e-02
 1  2  3     0.0000000000e+00
 1  3  1     0.0000000000e+00
 1  3  2     0.0000000000e+00
 1  3  3    -5.5030696065e-03
 2  1  1    -5.5415967104e-03
 2  1  2     1.6547109522e-02
 2  1  3     0.0000000000e+00
 2  2  1    -1.3017052395e-02
 2  2  2     4.2610898701e-03
 2  2  3     0.0000000000e+00
 2  3  1     0.0000000000e+00
 2  3  2     0.0000000000e+00
 2  3  3    -7.9917713791e-03
 3  1  1     0.0000000000e+00
 3  1  2     0.0000000000e+00
 3  1  3    -5.5030696065e-03
 3  2  1     0.0000000000e+00
 3  2  2     0.0000000000e+00
 3  2  3    -7.9917713791e-03
 3  3  1    -3.1909484807e-03
 3  3  2    -8.2825108654e-03
 3  3  3     0.0000000000e+00

    9
0.0000000000e+00 0.0000000000e+00 0.0000000000e+00
2.8013293872e+00 2.8013293872e+00 0.0000000000e+00
     1      1      1
 1  1  1    -7.0062563881e-02
 1  1  2    -1.1218004760e-01
 1  1  3     0.0000000000e+00
 1  2  1    -1.6713557348e-01
 1  2  2    -1.6713557348e-01
 1  2  3     0.0000000000e+00
 1  3  1     0.0000000000e+00
 1  3  2     0.0000000000e+00
 1  3  3     7.6594620732e-02
 2  1  1    -1.6713557348e-01
 2  1  2    -1.6713557348e-01
 2  1  3     0.0000000000e+00
 2  2  1    -1.1218004760e-01
 2  2  2    -7.0062563881e-02
 2  2  3     0.0000000000e+00
 2  3  1     0.0000000000e+00
 2  3  2     0.0000000000e+00
 2  3  3     7.6594620732e-02
 3  1  1     0.0000000000e+00
 3  1  2     0.0000000000e+00
 3  1  3     7.6594620732e-02
 3  2  1     0.0000000000e+00
 3  2  2     0.0000000000e+00
 3  2  3     7.6594620732e-02
 3  3  1     5.6612936296e-02
 3  3  2     5.6612936296e-02
 3  3  3     0.0000000000e+00

   10
0.0000000000e+00 0.0000000000e+00 0.0000000000e+00
2.8013293872e+00 2.8013293872e+00 0.0000000000e+00
     1      1      2
 1  1  1     0.0000000000e+00
 1  1  2    -8.2825108654e-03
 1  1  3    -3.1909484807e-03
 1  2  1    -7.9917713791e-03
 1  2  2     0.0000000000e+00
 1  2  3     0.0000000000e+00
 1  3  1    -5.5030696065e-03
 1  3  2     0.0000000000e+00
 1  3  3     0.0000000000e+00
 2  1  1    -7.9917713791e-03
 2  1  2     0.0000000000e+00
 2  1  3     0.0000000000e+00
 2  2  1     0.0000000000e+00
 2  2  2     4.2610898701e-03
 2  2  3    -1.3017052395e-02
 2  3  1     0.0000000000e+00
 2  3  2     1.6547109522e-02
 2  3  3    -5.5415967104e-03
 3  1  1    -5.5030696065e-03
 3  1  2     0.0000000000e+00
 3  1  3     0.0000000000e+00
 3  2  1     0.0000000000e+00
 3  2  2     1.6547109522e-02
 3  2  3    -5.5415967104e-03
 3  3  1     0.0000000000e+00
 3  3  2     7.3293393170e-03
 3  3  3    -6.1786376522e-03

   11
0.0000000000e+00 0.0000000000e+00 0.0000000000e+00
0.0000000000e+00 -5.6026587743e+00 -5.6026587743e+00
     1      1      2
 1  1  1     0.0000000000e+00
 1  1  2    -1.6861505034e-02
 1  1  3    -1.6861505034e-02
 1  2  1    -1.7636793528e-02
 1  2  2    -1.7636793528e-02
 1  2  3    -3.7946408204e-02
 1  3  1    -1.7636793528e-02
 1  3  2    -3.7946408204e-02
 1  3  3    -1.7636793528e-02
 2  1  1    -1.7636793528e-02
 2  1  2    -1.7636793528e-02
 2  1  3    -3.7946408204e-02
 2  2  1    -1.6861505034e-02
 2  2  2     0.0000000000e+00
 2  2  3    -1.6861505034e-02
 2  3  1    -3.7946408204e-02
 2  3  2    -1.7636793528e-02
 2  3  3    -1.7636793528e-02
 3  1  1    -1.7636793528e-02
 3  1  2    -3.7946408204e-02
 3  1  3    -1.7636793528e-02
 3  2  1    -3.7946408204e-02
 3  2  2    -1.7636793528e-02
 3  2  3    -1.7636793528e-02
 3  3  1    -1.6861505034e-02
 3  3  2    -1.6861505034e-02
 3  3  3     0.0000000000e+00

   12
0.0000000000e+00 0.0000000000e+00 0.0000000000e+00
-2.8013293872e+00 -5.6026587743e+00 -2.8013293872e+00
     1      1      2
 1  1  1    -4.2610898701e-03
 1  1  2     1.3017052395e-02
 1  1  3     0.0000000000e+00
 1  2  1    -1.6547109522e-02
 1  2  2     5.5415967104e-03
 1  2  3     0.0000000000e+00
 1  3  1     0.0000000000e+00
 1  3  2     0.0000000000e+00
 1  3  3     7.9917713791e-03
 2  1  1    -1.6547109522e-02
 2  1  2     5.5415967104e-03
 2  1  3     0.0000000000e+00
 2  2  1    -7.3293393170e-03
 2  2  2     6.1786376522e-03
 2  2  3     0.0000000000e+00
 2  3  1     0.0000000000e+00
 2  3  2     0.0000000000e+00
 2  3  3     5.5030696065e-03
 3  1  1     0.0000000000e+00
 3  1  2     0.0000000000e+00
 3  1  3     7.9917713791e-03
 3  2  1     0.0000000000e+00
 3  2  2     0.0000000000e+00
 3  2  3     5.5030696065e-03
 3  3  1     8.2825108654e-03
 3  3  2     3.1909484807e-03
 3  3  3     0.0000000000e+00

   13
0.0000000000e+00 0.0000000000e+00 0.0000000000e+00
2.8013293872e+00 -5.6026587743e+00 -8.4039881615e+00
     1      1      2
 1  1  1     0.0000000000e+00
 1  1  2     3.1909484807e-03
 1  1  3     8.2825108654e-03
 1  2  1     5.5030696065e-03
 1  2  2     0.0000000000e+00
 1  2  3     0.0000000000e+00
 1  3  1     7.9917713791e-03
 1  3  2     0.0000000000e+00
 1  3  3     0.0000000000e+00
 2  1  1     5.5030696065e-03
 2  1  2     0.0000000000e+00
 2  1  3     0.0000000000e+00
 2  2  1     0.0000000000e+00
 2  2  2     6.1786376522e-03
 2  2  3    -7.3293393170e-03
 2  3  1     0.0000000000e+00
 2  3  2     5.5415967104e-03
 2  3  3    -1.6547109522e-02
 3  1  1     7.9917713791e-03
 3  1  2     0.0000000000e+00
 3  1  3     0.0000000000e+00
 3  2  1     0.0000000000e+00
 3  2  2     5.5415967104e-03
 3  2  3    -1.6547109522e-02
 3  3  1     0.0000000000e+00
 3  3  2     1.3017052395e-02
 3  3  3    -4.2610898701e-03

   14
0.0000000000e+00 0.0000000000e+00 0.0000000000e+00
0.0000000000e+00 -2.8013293872e+00 -2.8013293872e+00
     1      1      1
 1  1  1     0.0000000000e+00
 1  1  2    -5.6612936296e-02
 1  1  3    -5.6612936296e-02
 1  2  1    -7.6594620732e-02
 1  2  2     0.0000000000e+00
 1  2  3     0.0000000000e+00
 1  3  1    -7.6594620732e-02
 1  3  2     0.0000000000e+00
 1  3  3     0.0000000000e+00
 2  1  1    -7.6594620732e-02
 2  1  2     0.0000000000e+00
 2  1  3     0.0000000000e+00
 2  2  1     0.0000000000e+00
 2  2  2     7.0062563881e-02
 2  2  3     1.1218004760e-01
 2  3  1     0.0000000000e+00
 2  3  2     1.6713557348e-01
 2  3  3     1.6713557348e-01
 3  1  1    -7.6594620732e-02
 3  1  2     0.0000000000e+00
 3  1  3     0.0000000000e+00
 3  2  1     0.0000000000e+00
 3  2  2     1.6713557348e-01
 3  2  3     1.6713557348e-01
 3  3  1     0.0000000000e+00
 3  3  2     1.1218004760e-01
 3  3  3     7.0062563881e-02

   15
0.0000000000e+00 0.0000000000e+00 0.0000000000e+00
0.0000000000e+00 -2.8013293872e+00 -2.8013293872e+00
     1      1      2
 1  1  1     2.0232471499e+00
 1  1  2     0.0000000000e+00
 1  1  3     0.0000000000e+00
 1  2  1     0.0000000000e+00
 1  2  2    -7.9198925426e-03
 1  2  3     0.0000000000e+00
 1  3  1     0.0000000000e+00
 1  3  2     0.0000000000e+00
 1  3  3    -7.9198925426e-03
 2  1  1     0.0000000000e+00
 2  1  2    -7.9198925426e-03
 2  1  3     0.0000000000e+00
 2  2  1    -8.9385726773e-02
 2  2  2     0.0000000000e+00
 2  2  3     0.0000000000e+00
 2  3  1     0.0000000000e+00
 2  3  2     0.0000000000e+00
 2  3  3     0.0000000000e+00
 3  1  1     0.0000000000e+00
 3  1  2     0.0000000000e+00
 3  1  3    -7.9198925426e-03
 3  2  1     0.0000000000e+00
 3  2  2     0.0000000000e+00
 3  2  3     0.0000000000e+00
 3  3  1    -8.9385726773e-02
 3  3  2     0.0000000000e+00
 3  3  3     0.0000000000e+00

   16
0.0000000000e+00 0.0000000000e+00 0.0000000000e+00
-2.8013293872e+00 -2.8013293872e+00 0.0000000000e+00
     1      1      1
 1  1  1     7.0062563881e-02
 1  1  2     1.1218004760e-01
 1  1  3     0.0000000000e+00
 1  2  1     1.6713557348e-01
 1  2  2     1.6713557348e-01
 1  2  3     0.0000000000e+00
 1  3  1     0.0000000000e+00
 1  3  2     0.0000000000e+00
 1  3  3    -7.6594620732e-02
 2  1  1     1.6713557348e-01
 2  1  2     1.6713557348e-01
 2  1  3     0.0000000000e+00
 2  2  1     1.1218004760e-01
 2  2  2     7.0062563881e-02
 2  2  3     0.0000000000e+00
 2  3  1     0.0000000000e+00
 2  3  2     0.0000000000e+00
 2  3  3    -7.6594620732e-02
 3  1  1     0.0000000000e+00
 3  1  2     0.0000000000e+00
 3  1  3    -7.6594620732e-02
 3  2  1     0.0000000000e+00
 3  2  2     0.0000000000e+00
 3  2  3    -7.6594620732e-02
 3  3  1    -5.6612936296e-02
 3  3  2    -5.6612936296e-02
 3  3  3     0.0000000000e+00

   17
0.0000000000e+00 0.0000000000e+00 0.0000000000e+00
-2.8013293872e+00 -2.8013293872e+00 0.0000000000e+00
     1      1      2
 1  1  1    -4.2610898701e-03
 1  1  2     0.0000000000e+00
 1  1  3    -1.3017052395e-02
 1  2  1     0.0000000000e+00
 1  2  2     7.9917713791e-03
 1  2  3     0.0000000000e+00
 1  3  1     1.6547109522e-02
 1  3  2     0.0000000000e+00
 1  3  3     5.5415967104e-03
 2  1  1     0.0000000000e+00
 2  1  2     7.9917713791e-03
 2  1  3     0.0000000000e+00
 2  2  1     8.2825108654e-03
 2  2  2     0.0000000000e+00
 2  2  3    -3.1909484807e-03
 2  3  1     0.0000000000e+00
 2  3  2    -5.5030696065e-03
 2  3  3     0.0000000000e+00
 3  1  1     1.6547109522e-02
 3  1  2     0.0000000000e+00
 3  1  3     5.5415967104e-03
 3  2  1     0.0000000000e+00
 3  2  2    -5.5030696065e-03
 3  2  3     0.0000000000e+00
 3  3  1    -7.3293393170e-03
 3  3  2     0.0000000000e+00
 3  3  3    -6.1786376522e-03

   18
0.0000000000e+00 0.0000000000e+00 0.0000000000e+00
5.6026587743e+00 -2.8013293872e+00 -8.4039881615e+00
     1      1      2
 1  1  1    -6.1786376522e-03
 1  1  2     0.0000000000e+00
 1  1  3    -7.3293393170e-03
 1  2  1     0.0000000000e+00
 1  2  2    -5.5030696065e-03
 1  2  3     0.0000000000e+00
 1  3  1     5.5415967104e-03
 1  3  2     0.0000000000e+00
 1  3  3     1.6547109522e-02
 2  1  1     0.0000000000e+00
 2  1  2    -5.5030696065e-03
 2  1  3     0.0000000000e+00
 2  2  1    -3.1909484807e-03
 2  2  2     0.0000000000e+00
 2  2  3     8.2825108654e-03
 2  3  1     0.0000000000e+00
 2  3  2     7.9917713791e-03
 2  3  3     0.0000000000e+00
 3  1  1     5.5415967104e-03
 3  1  2     0.0000000000e+00
 3  1  3     1.6547109522e-02
 3  2  1     0.0000000000e+00
 3  2  2     7.9917713791e-03
 3  2  3     0.0000000000e+00
 3  3  1    -1.3017052395e-02
 3  3  2     0.0000000000e+00
 3  3  3    -4.2610898701e-03

   19
0.0000000000e+00 0.0000000000e+00 0.0000000000e+00
2.8013293872e+00 -2.8013293872e+00 -5.6026587743e+00
     1      1      2
 1  1  1     0.0000000000e+00
 1  1  2     0.0000000000e+00
 1  1  3    -8.9385726773e-02
 1  2  1     0.0000000000e+00
 1  2  2     0.0000000000e+00
 1  2  3     0.0000000000e+00
 1  3  1    -7.9198925426e-03
 1  3  2     0.0000000000e+00
 1  3  3     0.0000000000e+00
 2  1  1     0.0000000000e+00
 2  1  2     0.0000000000e+00
 2  1  3     0.0000000000e+00
 2  2  1     0.0000000000e+00
 2  2  2     0.0000000000e+00
 2  2  3    -8.9385726773e-02
 2  3  1     0.0000000000e+00
 2  3  2    -7.9198925426e-03
 2  3  3     0.0000000000e+00
 3  1  1    -7.9198925426e-03
 3  1  2     0.0000000000e+00
 3  1  3     0.0000000000e+00
 3  2  1     0.0000000000e+00
 3  2  2    -7.9198925426e-03
 3  2  3     0.0000000000e+00
 3  3  1     0.0000000000e+00
 3  3  2     0.0000000000e+00
 3  3  3     2.0232471499e+00

   20
0.0000000000e+00 0.0000000000e+00 0.0000000000e+00
-2.8013293872e+00 2.8013293872e+00 0.0000000000e+00
     1      1      1
 1  1  1     7.0062563881e-02
 1  1  2    -1.1218004760e-01
 1  1  3     0.0000000000e+00
 1  2  1    -1.6713557348e-01
 1  2  2     1.6713557348e-01
 1  2  3     0.0000000000e+00
 1  3  1     0.0000000000e+00
 1  3  2     0.0000000000e+00
 1  3  3    -7.6594620732e-02
 2  1  1    -1.6713557348e-01
 2  1  2     1.6713557348e-01
 2  1  3     0.0000000000e+00
 2  2  1     1.1218004760e-01
 2  2  2    -7.0062563881e-02
 2  2  3     0.0000000000e+00
 2  3  1     0.0000000000e+00
 2  3  2     0.0000000000e+00
 2  3  3     7.6594620732e-02
 3  1  1     0.0000000000e+00
 3  1  2     0.0000000000e+00
 3  1  3    -7.6594620732e-02
 3  2  1     0.0000000000e+00
 3  2  2     0.0000000000e+00
 3  2  3     7.6594620732e-02
 3  3  1    -5.6612936296e-02
 3  3  2     5.6612936296e-02
 3  3  3     0.0000000000e+00

   21
0.0000000000e+00 0.0000000000e+00 0.0000000000e+00
2.8013293872e+00 2.8013293872e+00 -5.6026587743e+00
     1      1      2
 1  1  1     0.0000000000e+00
 1  1  2    -8.2825108654e-03
 1  1  3     3.1909484807e-03
 1  2  1    -7.9917713791e-03
 1  2  2     0.0000000000e+00
 1  2  3     0.0000000000e+00
 1  3  1     5.5030696065e-03
 1  3  2     0.0000000000e+00
 1  3  3     0.0000000000e+00
 2  1  1    -7.9917713791e-03
 2  1  2     0.0000000000e+00
 2  1  3     0.0000000000e+00
 2  2  1     0.0000000000e+00
 2  2  2     4.2610898701e-03
 2  2  3     1.3017052395e-02
 2  3  1     0.0000000000e+00
 2  3  2    -1.6547109522e-02
 2  3  3    -5.5415967104e-03
 3  1  1     5.5030696065e-03
 3  1  2     0.0000000000e+00
 3  1  3     0.0000000000e+00
 3  2  1     0.0000000000e+00
 3  2  2    -1.6547109522e-02
 3  2  3    -5.5415967104e-03
 3  3  1     0.0000000000e+00
 3  3  2     7.3293393170e-03
 3  3  3     6.1786376522e-03

   22
0.0000000000e+00 0.0000000000e+00 0.0000000000e+00
0.0000000000e+00 2.8013293872e+00 -2.8013293872e+00
     1      1      1
 1  1  1     0.0000000000e+00
 1  1  2     5.6612936296e-02
 1  1  3    -5.6612936296e-02
 1  2  1     7.6594620732e-02
 1  2  2     0.0000000000e+00
 1  2  3     0.0000000000e+00
 1  3  1    -7.6594620732e-02
 1  3  2     0.0000000000e+00
 1  3  3     0.0000000000e+00
 2  1  1     7.6594620732e-02
 2  1  2     0.0000000000e+00
 2  1  3     0.0000000000e+00
 2  2  1     0.0000000000e+00
 2  2  2    -7.0062563881e-02
 2  2  3     1.1218004760e-01
 2  3  1     0.0000000000e+00
 2  3  2     1.6713557348e-01
 2  3  3    -1.6713557348e-01
 3  1  1    -7.6594620732e-02
 3  1  2     0.0000000000e+00
 3  1  3     0.0000000000e+00
 3  2  1     0.0000000000e+00
 3  2  2     1.6713557348e-01
 3  2  3    -1.6713557348e-01
 3  3  1     0.0000000000e+00
 3  3  2    -1.1218004760e-01
 3  3  3     7.0062563881e-02

   23
0.0000000000e+00 0.0000000000e+00 0.0000000000e+00
0.0000000000e+00 2.8013293872e+00 -2.8013293872e+00
     1      1      2
 1  1  1     6.1786376522e-03
 1  1  2     7.3293393170e-03
 1  1  3     0.0000000000e+00
 1  2  1    -5.5415967104e-03
 1  2  2    -1.6547109522e-02
 1  2  3     0.0000000000e+00
 1  3  1     0.0000000000e+00
 1  3  2     0.0000000000e+00
 1  3  3     5.5030696065e-03
 2  1  1    -5.5415967104e-03
 2  1  2    -1.6547109522e-02
 2  1  3     0.0000000000e+00
 2  2  1     1.3017052395e-02
 2  2  2     4.2610898701e-03
 2  2  3     0.0000000000e+00
 2  3  1     0.0000000000e+00
 2  3  2     0.0000000000e+00
 2  3  3    -7.9917713791e-03
 3  1  1     0.0000000000e+00
 3  1  2     0.0000000000e+00
 3  1  3     5.5030696065e-03
 3  2  1     0.0000000000e+00
 3  2  2     0.0000000000e+00
 3  2  3    -7.9917713791e-03
 3  3  1     3.1909484807e-03
 3  3  2    -8.2825108654e-03
 3  3  3     0.0000000000e+00

   24
0.0000000000e+00 0.0000000000e+00 0.0000000000e+00
0.0000000000e+00 5.6026587743e+00 0.0000000000e+00
     1      1      1
 1  1  1     0.0000000000e+00
 1  1  2     4.5859728404e-03
 1  1  3     0.0000000000e+00
 1  2  1     3.4076254561e-03
 1  2  2     0.0000000000e+00
 1  2  3     0.0000000000e+00
 1  3  1     0.0000000000e+00
 1  3  2     0.0000000000e+00
 1  3  3     0.0000000000e+00
 2  1  1     3.4076254561e-03
 2  1  2     0.0000000000e+00
 2  1  3     0.0000000000e+00
 2  2  1     0.0000000000e+00
 2  2  2     2.8924911694e-02
 2  2  3     0.0000000000e+00
 2  3  1     0.0000000000e+00
 2  3  2     0.0000000000e+00
 2  3  3     3.4076254561e-03
 3  1  1     0.0000000000e+00
 3  1  2     0.0000000000e+00
 3  1  3     0.0000000000e+00
 3  2  1     0.0000000000e+00
 3  2  2     0.0000000000e+00
 3  2  3     3.4076254561e-03
 3  3  1     0.0000000000e+00
 3  3  2     4.5859728404e-03
 3  3  3     0.0000000000e+00

   25
0.0000000000e+00 0.0000000000e+00 0.0000000000e+00
-2.8013293872e+00 -2.8013293872e+00 -5.6026587743e+00
     1      1      2
 1  1  1    -4.2610898701e-03
 1  1  2     0.0000000000e+00
 1  1  3     1.3017052395e-02
 1  2  1     0.0000000000e+00
 1  2  2     7.9917713791e-03
 1  2  3     0.0000000000e+00
 1  3  1    -1.6547109522e-02
 1  3  2     0.0000000000e+00
 1  3  3     5.5415967104e-03
 2  1  1     0.0000000000e+00
 2  1  2     7.9917713791e-03
 2  1  3     0.0000000000e+00
 2  2  1     8.2825108654e-03
 2  2  2     0.0000000000e+00
 2  2  3     3.1909484807e-03
 2  3  1     0.0000000000e+00
 2  3  2     5.5030696065e-03
 2  3  3     0.0000000000e+00
 3  1  1    -1.6547109522e-02
 3  1  2     0.0000000000e+00
 3  1  3     5.5415967104e-03
 3  2  1     0.0000000000e+00
 3  2  2     5.5030696065e-03
 3  2  3     0.0000000000e+00
 3  3  1    -7.3293393170e-03
 3  3  2     0.0000000000e+00
 3  3  3     6.1786376522e-03

   26
0.0000000000e+00 0.0000000000e+00 0.0000000000e+00
0.0000000000e+00 -2.8013293872e+00 -8.4039881615e+00
     1      1      2
 1  1  1     6.1786376522e-03
 1  1  2     0.0000000000e+00
 1  1  3    -7.3293393170e-03
 1  2  1     0.0000000000e+00
 1  2  2     5.5030696065e-03
 1  2  3     0.0000000000e+00
 1  3  1     5.5415967104e-03
 1  3  2     0.0000000000e+00
 1  3  3    -1.6547109522e-02
 2  1  1     0.0000000000e+00
 2  1  2     5.5030696065e-03
 2  1  3     0.0000000000e+00
 2  2  1     3.1909484807e-03
 2  2  2     0.0000000000e+00
 2  2  3     8.2825108654e-03
 2  3  1     0.0000000000e+00
 2  3  2     7.9917713791e-03
 2  3  3     0.0000000000e+00
 3  1  1     5.5415967104e-03
 3  1  2     0.0000000000e+00
 3  1  3    -1.6547109522e-02
 3  2  1     0.0000000000e+00
 3  2  2     7.9917713791e-03
 3  2  3     0.0000000000e+00
 3  3  1     1.3017052395e-02
 3  3  2     0.0000000000e+00
 3  3  3    -4.2610898701e-03

   27
0.0000000000e+00 0.0000000000e+00 0.0000000000e+00
-2.8013293872e+00 0.0000000000e+00 -2.8013293872e+00
     1      1      1
 1  1  1     7.0062563881e-02
 1  1  2     0.0000000000e+00
 1  1  3     1.1218004760e-01
 1  2  1     0.0000000000e+00
 1  2  2    -7.6594620732e-02
 1  2  3     0.0000000000e+00
 1  3  1     1.6713557348e-01
 1  3  2     0.0000000000e+00
 1  3  3     1.6713557348e-01
 2  1  1     0.0000000000e+00
 2  1  2    -7.6594620732e-02
 2  1  3     0.0000000000e+00
 2  2  1    -5.6612936296e-02
 2  2  2     0.0000000000e+00
 2  2  3    -5.6612936296e-02
 2  3  1     0.0000000000e+00
 2  3  2    -7.6594620732e-02
 2  3  3     0.0000000000e+00
 3  1  1     1.6713557348e-01
 3  1  2     0.0000000000e+00
 3  1  3     1.6713557348e-01
 3  2  1     0.0000000000e+00
 3  2  2    -7.6594620732e-02
 3  2  3     0.0000000000e+00
 3  3  1     1.1218004760e-01
 3  3  2     0.0000000000e+00
 3  3  3     7.0062563881e-02

   28
0.0000000000e+00 0.0000000000e+00 0.0000000000e+00
-2.8013293872e+00 0.0000000000e+00 -2.8013293872e+00
     1      1      2
 1  1  1    -4.2610898701e-03
 1  1  2    -1.3017052395e-02
 1  1  3     0.0000000000e+00
 1  2  1     1.6547109522e-02
 1  2  2     5.5415967104e-03
 1  2  3     0.0000000000e+00
 1  3  1     0.0000000000e+00
 1  3  2     0.0000000000e+00
 1  3  3     7.9917713791e-03
 2  1  1     1.6547109522e-02
 2  1  2     5.5415967104e-03
 2  1  3     0.0000000000e+00
 2  2  1    -7.3293393170e-03
 2  2  2    -6.1786376522e-03
 2  2  3     0.0000000000e+00
 2  3  1     0.0000000000e+00
 2  3  2     0.0000000000e+00
 2  3  3    -5.5030696065e-03
 3  1  1     0.0000000000e+00
 3  1  2     0.0000000000e+00
 3  1  3     7.9917713791e-03
 3  2  1     0.0000000000e+00
 3  2  2     0.0000000000e+00
 3  2  3    -5.5030696065e-03
 3  3  1     8.2825108654e-03
 3  3  2    -3.1909484807e-03
 3  3  3     0.0000000000e+00

   29
0.0000000000e+00 0.0000000000e+00 0.0000000000e+00
-5.6026587743e+00 0.0000000000e+00 0.0000000000e+00
     1      1      1
 1  1  1    -2.8924911694e-02
 1  1  2     0.0000000000e+00
 1  1  3     0.0000000000e+00
 1  2  1     0.0000000000e+00
 1  2  2    -3.4076254561e-03
 1  2  3     0.0000000000e+00
 1  3  1     0.0000000000e+00
 1  3  2     0.0000000000e+00
 1  3  3    -3.4076254561e-03
 2  1  1     0.0000000000e+00
 2  1  2    -3.4076254561e-03
 2  1  3     0.0000000000e+00
 2  2  1    -4.5859728404e-03
 2  2  2     0.0000000000e+00
 2  2  3     0.0000000000e+00
 2  3  1     0.0000000000e+00
 2  3  2     0.0000000000e+00
 2  3  3     0.0000000000e+00
 3  1  1     0.0000000000e+00
 3  1  2     0.0000000000e+00
 3  1  3    -3.4076254561e-03
 3  2  1     0.0000000000e+00
 3  2  2     0.0000000000e+00
 3  2  3     0.0000000000e+00
 3  3  1    -4.5859728404e-03
 3  3  2     0.0000000000e+00
 3  3  3     0.0000000000e+00

   30
0.0000000000e+00 0.0000000000e+00 0.0000000000e+00
2.8013293872e+00 0.0000000000e+00 -8.4039881615e+00
     1      1      2
 1  1  1     0.0000000000e+00
 1  1  2    -3.1909484807e-03
 1  1  3     8.2825108654e-03
 1  2  1    -5.5030696065e-03
 1  2  2     0.0000000000e+00
 1  2  3     0.0000000000e+00
 1  3  1     7.9917713791e-03
 1  3  2     0.0000000000e+00
 1  3  3     0.0000000000e+00
 2  1  1    -5.5030696065e-03
 2  1  2     0.0000000000e+00
 2  1  3     0.0000000000e+00
 2  2  1     0.0000000000e+00
 2  2  2    -6.1786376522e-03
 2  2  3    -7.3293393170e-03
 2  3  1     0.0000000000e+00
 2  3  2     5.5415967104e-03
 2  3  3     1.6547109522e-02
 3  1  1     7.9917713791e-03
 3  1  2     0.0000000000e+00
 3  1  3     0.0000000000e+00
 3  2  1     0.0000000000e+00
 3  2  2     5.5415967104e-03
 3  2  3     1.6547109522e-02
 3  3  1     0.0000000000e+00
 3  3  2    -1.3017052395e-02
 3  3  3    -4.2610898701e-03

   31
0.0000000000e+00 0.0000000000e+00 0.0000000000e+00
0.0000000000e+00 0.0000000000e+00 -5.6026587743e+00
     1      1      1
 1  1  1     0.0000000000e+00
 1  1  2     0.0000000000e+00
 1  1  3    -4.5859728404e-03
 1  2  1     0.0000000000e+00
 1  2  2     0.0000000000e+00
 1  2  3     0.0000000000e+00
 1  3  1    -3.4076254561e-03
 1  3  2     0.0000000000e+00
 1  3  3     0.0000000000e+00
 2  1  1     0.0000000000e+00
 2  1  2     0.0000000000e+00
 2  1  3     0.0000000000e+00
 2  2  1     0.0000000000e+00
 2  2  2     0.0000000000e+00
 2  2  3    -4.5859728404e-03
 2  3  1     0.0000000000e+00
 2  3  2    -3.4076254561e-03
 2  3  3     0.0000000000e+00
 3  1  1    -3.4076254561e-03
 3  1  2     0.0000000000e+00
 3  1  3     0.0000000000e+00
 3  2  1     0.0000000000e+00
 3  2  2    -3.4076254561e-03
 3  2  3     0.0000000000e+00
 3  3  1     0.0000000000e+00
 3  3  2     0.0000000000e+00
 3  3  3    -2.8924911694e-02

   32
0.0000000000e+00 0.0000000000e+00 0.0000000000e+00
0.0000000000e+00 0.0000000000e+00 -5.6026587743e+00
     1      1      2
 1  1  1     0.0000000000e+00
 1  1  2     1.6861505034e-02
 1  1  3    -1.6861505034e-02
 1  2  1     1.7636793528e-02
 1  2  2    -1.7636793528e-02
 1  2  3     3.7946408204e-02
 1  3  1    -1.7636793528e-02
 1  3  2     3.7946408204e-02
 1  3  3    -1.7636793528e-02
 2  1  1     1.7636793528e-02
 2  1  2    -1.7636793528e-02
 2  1  3     3.7946408204e-02
 2  2  1    -1.6861505034e-02
 2  2  2     0.0000000000e+00
 2  2  3    -1.6861505034e-02
 2  3  1     3.7946408204e-02
 2  3  2    -1.7636793528e-02
 2  3  3     1.7636793528e-02
 3  1  1    -1.7636793528e-02
 3  1  2     3.7946408204e-02
 3  1  3    -1.7636793528e-02
 3  2  1     3.7946408204e-02