   0.33998E+01   0.37289E-03   0.37289E-03   0.37250E-03   0.37250E-03
   0.67995E+01   0.86527E-03   0.86527E-03   0.86352E-03   0.86352E-03
   0.10199E+02   0.16348E-02   0.16348E-02   0.16294E-02   0.16294E-02
   0.13599E+02   0.23130E-02   0.23130E-02   0.23033E-02   0.23033E-02
   0.16999E+02   0.29477E-02   0.29477E-02   0.29330E-02   0.29330E-02
   0.20399E+02   0.55041E-02   0.55041E-02   0.54643E-02   0.54643E-02
   0.23798E+02   0.50965E-02   0.50965E-02   0.50590E-02   0.50590E-02
   0.27198E+02   0.76323E-02   0.76323E-02   0.75602E-02   0.75602E-02
   0.30598E+02   0.73318E-02   0.73318E-02   0.72844E-02   0.72844E-02
   0.33998E+02   0.65026E-02   0.65026E-02   0.64741E-02   0.64741E-02
   0.37397E+02   0.63199E-02   0.63199E-02   0.63002E-02   0.63002E-02
   0.40797E+02   0.63001E-02   0.63001E-02   0.62868E-02   0.62868E-02
   0.44197E+02   0.63693E-02   0.63693E-02   0.63614E-02   0.63614E-02
   0.47597E+02   0.64924E-02   0.64924E-02   0.64894E-02   0.64894E-02
   0.50996E+02   0.66860E-02   0.66860E-02   0.66878E-02   0.66878E-02
   0.54396E+02   0.68741E-02   0.68741E-02   0.68809E-02   0.68809E-02
   0.57796E+02   0.71389E-02   0.71389E-02   0.71509E-02   0.71509E-02
   0.61196E+02   0.74088E-02   0.74088E-02   0.74265E-02   0.74265E-02
   0.64595E+02   0.77561E-02   0.77561E-02   0.77800E-02   0.77800E-02
   0.67995E+02   0.80984E-02   0.80984E-02   0.81296E-02   0.81296E-02
   0.71395E+02   0.85429E-02   0.85429E-02   0.85826E-02   0.85826E-02
   0.74795E+02   0.90343E-02   0.90343E-02   0.90845E-02   0.90845E-02
   0.78195E+02   0.96735E-02   0.96735E-02   0.97373E-02   0.97373E-02
   0.81594E+02   0.10477E-01   0.10477E-01   0.10559E-01   0.10559E-01
   0.84994E+02   0.11725E-01   0.11725E-01   0.11835E-01   0.11835E-01
   0.88394E+02   0.14589E-01   0.14589E-01   0.14744E-01   0.14744E-01
   0.91794E+02   0.15821E-01   0.15821E-01   0.16492E-01   0.16492E-01
   0.95193E+02   0.70503E-02   0.70503E-02   0.71080E-02   0.71080E-02
   0.98593E+02   0.56842E-02   0.56842E-02   0.57126E-02   0.57126E-02
   0.10199E+03   0.54649E-02   0.54649E-02   0.54420E-02   0.54420E-02
   0.10539E+03   0.72144E-02   0.72144E-02   0.71291E-02   0.71291E-02
   0.10879E+03   0.93031E-02   0.93031E-02   0.91956E-02   0.91956E-02
   0.11219E+03   0.12134E-01   0.12134E-01   0.11982E-01   0.11982E-01
   0.11559E+03   0.17315E-01   0.17315E-01   0.17073E-01   0.17073E-01
   0.11899E+03   0.24301E-01   0.24301E-01   0.23841E-01   0.23841E-01
   0.12239E+03   0.17330E-01   0.17330E-01   0.17098E-01   0.17098E-01
   0.12579E+03   0.15581E-01   0.15581E-01   0.15401E-01   0.15401E-01
   0.12919E+03   0.14475E-01   0.14475E-01   0.14329E-01   0.14329E-01
   0.13259E+03   0.14046E-01   0.14046E-01   0.13922E-01   0.13922E-01
   0.13599E+03   0.13614E-01   0.13614E-01   0.13509E-01   0.13509E-01
   0.13939E+03   0.13387E-01   0.13387E-01   0.13298E-01   0.13298E-01
   0.14279E+03   0.13362E-01   0.13362E-01   0.13287E-01   0.13287E-01
   0.14619E+03   0.13394E-01   0.13394E-01   0.13335E-01   0.13335E-01
   0.14959E+03   0.13571E-01   0.13571E-01   0.13528E-01   0.13528E-01
   0.15299E+03   0.13917E-01   0.13917E-01   0.13893E-01   0.13893E-01
   0.15639E+03   0.14496E-01   0.14496E-01   0.14494E-01   0.14494E-01
   0.15979E+03   0.15476E-01   0.15476E-01   0.15504E-01   0.15504E-01
   0.16319E+03   0.16699E-01   0.16699E-01   0.16772E-01   0.16772E-01
   0.16659E+03   0.88885E-02   0.88885E-02   0.88678E-02   0.88678E-02
   0.16999E+03   0.47455E-02   0.47455E-02   0.47178E-02   0.47178E-02
   0.17339E+03   0.46873E-02   0.46873E-02   0.46618E-02   0.46618E-02
   0.17679E+03   0.46442E-02   0.46442E-02   0.46214E-02   0.46214E-02
   0.18019E+03   0.45390E-02   0.45390E-02   0.45199E-02   0.45199E-02
   0.18359E+03   0.45265E-02   0.45265E-02   0.45101E-02   0.45101E-02
   0.18699E+03   0.45305E-02   0.45305E-02   0.45171E-02   0.45171E-02
   0.19039E+03   0.36875E-02   0.36875E-02   0.36934E-02   0.36934E-02
   0.19379E+03   0.32888E-02   0.32888E-02   0.33069E-02   0.33069E-02
   0.19719E+03   0.34491E-02   0.34491E-02   0.34697E-02   0.34697E-02
   0.20059E+03   0.36450E-02   0.36450E-02   0.36689E-02   0.36689E-02
   0.20399E+03   0.38603E-02   0.38603E-02   0.38883E-02   0.38883E-02
   0.20739E+03   0.40819E-02   0.40819E-02   0.41151E-02   0.41151E-02
   0.21079E+03   0.43685E-02   0.43685E-02   0.44086E-02   0.44086E-02
   0.21418E+03   0.46529E-02   0.46529E-02   0.47018E-02   0.47018E-02
   0.21758E+03   0.49988E-02   0.49988E-02   0.50597E-02   0.50597E-02
   0.22098E+03   0.54187E-02   0.54187E-02   0.54968E-02   0.54968E-02
   0.22438E+03   0.58278E-02   0.58278E-02   0.59309E-02   0.59309E-02
   0.22778E+03   0.63623E-02   0.63623E-02   0.65105E-02   0.65105E-02
   0.23118E+03   0.76119E-02   0.76119E-02   0.79004E-02   0.79004E-02
   0.23458E+03   0.56793E-02   0.56793E-02   0.58133E-02   0.58133E-02
   0.23798E+03   0.54721E-02   0.54721E-02   0.55856E-02   0.55856E-02
   0.24138E+03   0.55516E-02   0.55516E-02   0.56736E-02   0.56736E-02
   0.24478E+03   0.58672E-02   0.58672E-02   0.60015E-02   0.60015E-02
   0.24818E+03   0.59035E-02   0.59035E-02   0.60420E-02   0.60420E-02
   0.25158E+03   0.57790E-02   0.57790E-02   0.59125E-02   0.59125E-02
   0.25498E+03   0.52594E-02   0.52594E-02   0.51916E-02   0.51916E-02
   0.25838E+03   0.67946E-02   0.67946E-02   0.63398E-02   0.63398E-02
   0.26178E+03   0.63615E-02   0.63615E-02   0.60272E-02   0.60272E-02
   0.26518E+03   0.34061E-01   0.34061E-01   0.34260E-01   0.34260E-01
   0.26858E+03   0.28710E-01   0.28710E-01   0.28735E-01   0.28735E-01
   0.27198E+03   0.39219E-01   0.39219E-01   0.39528E-01   0.39528E-01
   0.27538E+03   0.22828E-01   0.22828E-01   0.22918E-01   0.22918E-01
   0.27878E+03   0.17797E-01   0.17797E-01   0.17834E-01   0.17834E-01
   0.28218E+03   0.15482E-01   0.15482E-01   0.15502E-01   0.15502E-01
   0.28558E+03   0.14159E-01   0.14159E-01   0.14172E-01   0.14172E-01
   0.28898E+03   0.13333E-01   0.13333E-01   0.13341E-01   0.13341E-01
   0.29238E+03   0.12782E-01   0.12782E-01   0.12787E-01   0.12787E-01
   0.29578E+03   0.12563E-01   0.12563E-01   0.12565E-01   0.12565E-01
   0.29918E+03   0.12697E-01   0.12697E-01   0.12695E-01   0.12695E-01
   0.30258E+03   0.13354E-01   0.13354E-01   0.13346E-01   0.13346E-01
   0.30598E+03   0.18952E-01   0.18952E-01   0.18929E-01   0.18929E-01
   0.30938E+03   0.39735E-03   0.39735E-03   0.39726E-03   0.39726E-03
   0.31278E+03   0.00000E+00   0.00000E+00   0.00000E+00   0.00000E+00
   0.31618E+03   0.00000E+00   0.00000E+00   0.00000E+00   0.00000E+00
   0.31958E+03   0.00000E+00   0.00000E+00   0.00000E+00   0.00000E+00
   0.32298E+03   0.00000E+00   0.00000E+00   0.00000E+00   0.00000E+00
   0.32638E+03   0.00000E+00   0.00000E+00   0.00000E+00   0.00000E+00
   0.32978E+03   0.00000E+00   0.00000E+00   0.00000E+00   0.00000E+00
   0.33318E+03   0.00000E+00   0.00000E+00   0.00000E+00   0.00000E+00
   0.33658E+03   0.00000E+00   0.00000E+00   0.00000E+00   0.00000E+00
   0.33998E+03   0.00000E+00   0.00000E+00   0.00000E+00   0.00000E+00
