   0.81806E+00   0.18188E-04   0.15016E-04
   0.16361E+01   0.14856E-03   0.12268E-03
   0.24542E+01   0.33044E-03   0.27287E-03
   0.32722E+01   0.51120E-03   0.42176E-03
   0.40903E+01   0.91705E-03   0.75605E-03
   0.49083E+01   0.11271E-02   0.92882E-03
   0.57264E+01   0.16654E-02   0.13694E-02
   0.65445E+01   0.21334E-02   0.17538E-02
   0.73625E+01   0.25868E-02   0.21205E-02
   0.81806E+01   0.34182E-02   0.27982E-02
   0.89986E+01   0.38093E-02   0.31111E-02
   0.98167E+01   0.49791E-02   0.40528E-02
   0.10635E+02   0.53812E-02   0.43714E-02
   0.11453E+02   0.66019E-02   0.53341E-02
   0.12271E+02   0.74879E-02   0.60368E-02
   0.13089E+02   0.84596E-02   0.67763E-02
   0.13907E+02   0.99505E-02   0.79365E-02
   0.14725E+02   0.10610E-01   0.84076E-02
   0.15543E+02   0.12949E-01   0.10193E-01
   0.16361E+02   0.13401E-01   0.10471E-01
   0.17179E+02   0.16083E-01   0.12447E-01
   0.17997E+02   0.17059E-01   0.13095E-01
   0.18815E+02   0.19643E-01   0.14894E-01
   0.19633E+02   0.21669E-01   0.16251E-01
   0.20451E+02   0.23855E-01   0.17616E-01
   0.21269E+02   0.27683E-01   0.20178E-01
   0.22088E+02   0.29282E-01   0.20907E-01
   0.22906E+02   0.34793E-01   0.24429E-01
   0.23724E+02   0.37954E-01   0.25985E-01
   0.24542E+02   0.43615E-01   0.29129E-01
   0.25360E+02   0.50103E-01   0.32442E-01
   0.26178E+02   0.61997E-01   0.38787E-01
   0.26996E+02   0.77304E-01   0.46304E-01
   0.27814E+02   0.84434E-01   0.48375E-01
   0.28632E+02   0.88453E-01   0.47885E-01
   0.29450E+02   0.96336E-01   0.48207E-01
   0.30268E+02   0.10652E+00   0.47582E-01
   0.31086E+02   0.12135E+00   0.44944E-01
   0.31904E+02   0.17101E+00   0.40732E-01
   0.32722E+02   0.11456E+00   0.31039E-01
   0.33540E+02   0.93751E-01   0.29853E-01
   0.34358E+02   0.81030E-01   0.28674E-01
   0.35176E+02   0.69677E-01   0.26827E-01
   0.35995E+02   0.66462E-01   0.11346E+00
   0.36813E+02   0.69631E-01   0.11183E+00
   0.37631E+02   0.72712E-01   0.11319E+00
   0.38449E+02   0.73767E-01   0.11346E+00
   0.39267E+02   0.77186E-01   0.11489E+00
   0.40085E+02   0.81965E-01   0.12027E+00
   0.40903E+02   0.88977E-01   0.12566E+00
   0.41721E+02   0.96099E-01   0.13087E+00
   0.42539E+02   0.10166E+00   0.12925E+00
   0.43357E+02   0.12636E+00   0.14713E+00
   0.44175E+02   0.15351E+00   0.16427E+00
   0.44993E+02   0.17450E+00   0.16840E+00
   0.45811E+02   0.18445E+00   0.16682E+00
   0.46629E+02   0.10998E+00   0.10843E+00
   0.47447E+02   0.18035E+00   0.19398E+00
   0.48265E+02   0.35908E-01   0.30103E-01
   0.49083E+02   0.29380E-01   0.62576E-01
   0.49901E+02   0.21747E-01   0.75402E-01
   0.50720E+02   0.18943E-01   0.74084E-01
   0.51538E+02   0.17188E-01   0.75250E-01
   0.52356E+02   0.17765E-01   0.67673E-01
   0.53174E+02   0.17605E-01   0.48016E-01
   0.53992E+02   0.16697E-01   0.43572E-01
   0.54810E+02   0.16113E-01   0.39691E-01
   0.55628E+02   0.15545E-01   0.36433E-01
   0.56446E+02   0.16915E-01   0.33653E-01
   0.57264E+02   0.16588E-01   0.29072E-01
   0.58082E+02   0.17276E-01   0.27759E-01
   0.58900E+02   0.16325E-01   0.24772E-01
   0.59718E+02   0.16668E-01   0.24060E-01
   0.60536E+02   0.15441E-01   0.21542E-01
   0.61354E+02   0.15764E-01   0.21299E-01
   0.62172E+02   0.14438E-01   0.19073E-01
   0.62990E+02   0.14705E-01   0.19000E-01
   0.63808E+02   0.13241E-01   0.16846E-01
   0.64627E+02   0.13322E-01   0.16704E-01
   0.65445E+02   0.12408E-01   0.15382E-01
   0.66263E+02   0.11504E-01   0.14140E-01
   0.67081E+02   0.11464E-01   0.13968E-01
   0.67899E+02   0.10270E-01   0.12445E-01
   0.68717E+02   0.92008E-02   0.11108E-01
   0.69535E+02   0.87381E-02   0.10513E-01
   0.70353E+02   0.81675E-02   0.98062E-02
   0.71171E+02   0.73463E-02   0.88147E-02
   0.71989E+02   0.61782E-02   0.74184E-02
   0.72807E+02   0.45919E-02   0.55240E-02
   0.73625E+02   0.35103E-02   0.42320E-02
   0.74443E+02   0.32646E-03   0.39480E-03
   0.75261E+02   0.00000E+00   0.00000E+00
   0.76079E+02   0.00000E+00   0.00000E+00
   0.76897E+02   0.00000E+00   0.00000E+00
   0.77715E+02   0.00000E+00   0.00000E+00
   0.78533E+02   0.00000E+00   0.00000E+00
   0.79352E+02   0.00000E+00   0.00000E+00
   0.80170E+02   0.00000E+00   0.00000E+00
   0.80988E+02   0.00000E+00   0.00000E+00
   0.81806E+02   0.00000E+00   0.00000E+00
