   0.34043E+01   0.40430E-02   0.40430E-02
   0.68087E+01   0.41448E-02   0.41448E-02
   0.10213E+02   0.42647E-02   0.42647E-02
   0.13617E+02   0.42401E-02   0.42401E-02
   0.17022E+02   0.42345E-02   0.42345E-02
   0.20426E+02   0.46979E-02   0.46979E-02
   0.23830E+02   0.47593E-02   0.47593E-02
   0.27235E+02   0.48445E-02   0.48445E-02
   0.30639E+02   0.50247E-02   0.50247E-02
   0.34043E+02   0.51671E-02   0.51671E-02
   0.37448E+02   0.55803E-02   0.55803E-02
   0.40852E+02   0.56687E-02   0.56687E-02
   0.44256E+02   0.58762E-02   0.58762E-02
   0.47661E+02   0.60698E-02   0.60698E-02
   0.51065E+02   0.62518E-02   0.62518E-02
   0.54469E+02   0.66093E-02   0.66093E-02
   0.57874E+02   0.67731E-02   0.67731E-02
   0.61278E+02   0.72244E-02   0.72244E-02
   0.64682E+02   0.74671E-02   0.74671E-02
   0.68087E+02   0.79094E-02   0.79094E-02
   0.71491E+02   0.85244E-02   0.85244E-02
   0.74896E+02   0.90043E-02   0.90043E-02
   0.78300E+02   0.97573E-02   0.97573E-02
   0.81704E+02   0.10432E-01   0.10432E-01
   0.85109E+02   0.12319E-01   0.12319E-01
   0.88513E+02   0.18356E-01   0.18356E-01
   0.91917E+02   0.88051E-02   0.88051E-02
   0.95322E+02   0.64956E-02   0.64956E-02
   0.98726E+02   0.54502E-02   0.54502E-02
   0.10213E+03   0.54350E-02   0.54350E-02
   0.10553E+03   0.70428E-02   0.70428E-02
   0.10894E+03   0.87344E-02   0.87344E-02
   0.11234E+03   0.11311E-01   0.11311E-01
   0.11575E+03   0.15471E-01   0.15471E-01
   0.11915E+03   0.20850E-01   0.20850E-01
   0.12256E+03   0.17743E-01   0.17743E-01
   0.12596E+03   0.15710E-01   0.15710E-01
   0.12936E+03   0.14828E-01   0.14828E-01
   0.13277E+03   0.14019E-01   0.14019E-01
   0.13617E+03   0.13677E-01   0.13677E-01
   0.13958E+03   0.13150E-01   0.13150E-01
   0.14298E+03   0.13328E-01   0.13328E-01
   0.14639E+03   0.13175E-01   0.13175E-01
   0.14979E+03   0.13507E-01   0.13507E-01
   0.15320E+03   0.13725E-01   0.13725E-01
   0.15660E+03   0.13873E-01   0.13873E-01
   0.16000E+03   0.14558E-01   0.14558E-01
   0.16341E+03   0.15522E-01   0.15522E-01
   0.16681E+03   0.15391E-01   0.15391E-01
   0.17022E+03   0.47785E-02   0.47785E-02
   0.17362E+03   0.47196E-02   0.47196E-02
   0.17703E+03   0.46121E-02   0.46121E-02
   0.18043E+03   0.46274E-02   0.46274E-02
   0.18383E+03   0.46051E-02   0.46051E-02
   0.18724E+03   0.46420E-02   0.46420E-02
   0.19064E+03   0.32260E-02   0.32260E-02
   0.19405E+03   0.33925E-02   0.33925E-02
   0.19745E+03   0.36452E-02   0.36452E-02
   0.20086E+03   0.37342E-02   0.37342E-02
   0.20426E+03   0.39994E-02   0.39994E-02
   0.20766E+03   0.42460E-02   0.42460E-02
   0.21107E+03   0.44654E-02   0.44654E-02
   0.21447E+03   0.47156E-02   0.47156E-02
   0.21788E+03   0.50339E-02   0.50339E-02
   0.22128E+03   0.54183E-02   0.54183E-02
   0.22469E+03   0.59702E-02   0.59702E-02
   0.22809E+03   0.65511E-02   0.65511E-02
   0.23150E+03   0.11241E-01   0.11241E-01
   0.23490E+03   0.53061E-02   0.53061E-02
   0.23830E+03   0.55240E-02   0.55240E-02
   0.24171E+03   0.56505E-02   0.56505E-02
   0.24511E+03   0.57336E-02   0.57336E-02
   0.24852E+03   0.54549E-02   0.54549E-02
   0.25192E+03   0.58943E-02   0.58943E-02
   0.25533E+03   0.47225E-02   0.47225E-02
   0.25873E+03   0.15964E-01   0.15964E-01
   0.26213E+03   0.15765E-01   0.15765E-01
   0.26554E+03   0.18643E-01   0.18643E-01
   0.26894E+03   0.26010E-01   0.26010E-01
   0.27235E+03   0.29799E-01   0.29799E-01
   0.27575E+03   0.21001E-01   0.21001E-01
   0.27916E+03   0.18217E-01   0.18217E-01
   0.28256E+03   0.16116E-01   0.16116E-01
   0.28596E+03   0.14914E-01   0.14914E-01
   0.28937E+03   0.13971E-01   0.13971E-01
   0.29277E+03   0.12972E-01   0.12972E-01
   0.29618E+03   0.12390E-01   0.12390E-01
   0.29958E+03   0.12404E-01   0.12404E-01
   0.30299E+03   0.12523E-01   0.12523E-01
   0.30639E+03   0.14709E-01   0.14709E-01
   0.30980E+03   0.00000E+00   0.00000E+00
   0.31320E+03   0.00000E+00   0.00000E+00
   0.31660E+03   0.00000E+00   0.00000E+00
   0.32001E+03   0.00000E+00   0.00000E+00
   0.32341E+03   0.00000E+00   0.00000E+00
   0.32682E+03   0.00000E+00   0.00000E+00
   0.33022E+03   0.00000E+00   0.00000E+00
   0.33363E+03   0.00000E+00   0.00000E+00
   0.33703E+03   0.00000E+00   0.00000E+00
   0.34043E+03   0.00000E+00   0.00000E+00
