   0.32112E+01   0.36844E-02   0.48387E-02
   0.64224E+01   0.37370E-02   0.50339E-02
   0.96335E+01   0.43582E-02   0.60348E-02
   0.12845E+02   0.42605E-02   0.60867E-02
   0.16056E+02   0.43992E-02   0.65094E-02
   0.19267E+02   0.45633E-02   0.69932E-02
   0.22478E+02   0.51823E-02   0.82270E-02
   0.25689E+02   0.50475E-02   0.83972E-02
   0.28901E+02   0.49621E-02   0.86167E-02
   0.32112E+02   0.54086E-02   0.99273E-02
   0.35323E+02   0.53505E-02   0.10201E-01
   0.38534E+02   0.55864E-02   0.11607E-01
   0.41745E+02   0.53641E-02   0.11925E-01
   0.44957E+02   0.57911E-02   0.14077E-01
   0.48168E+02   0.60347E-02   0.16111E-01
   0.51379E+02   0.56960E-02   0.17677E-01
   0.54590E+02   0.57083E-02   0.21716E-01
   0.57801E+02   0.63559E-02   0.33110E-01
   0.61012E+02   0.87415E-02   0.88701E-01
   0.64224E+02   0.28274E-02   0.36062E-02
   0.67435E+02   0.27943E-02   0.35604E-02
   0.70646E+02   0.29824E-02   0.37921E-02
   0.73857E+02   0.35410E-02   0.44922E-02
   0.77068E+02   0.40363E-02   0.51039E-02
   0.80280E+02   0.43878E-02   0.55352E-02
   0.83491E+02   0.44731E-02   0.56244E-02
   0.86702E+02   0.46508E-02   0.58404E-02
   0.89913E+02   0.49688E-02   0.62129E-02
   0.93124E+02   0.57746E-02   0.71981E-02
   0.96335E+02   0.62975E-02   0.78044E-02
   0.99547E+02   0.75463E-02   0.93124E-02
   0.10276E+03   0.10021E-01   0.12234E-01
   0.10597E+03   0.94599E-02   0.11574E-01
   0.10918E+03   0.77270E-02   0.94989E-02
   0.11239E+03   0.73498E-02   0.90497E-02
   0.11560E+03   0.26965E-01   0.93682E-02
   0.11881E+03   0.43118E-01   0.11401E-01
   0.12202E+03   0.38064E-01   0.12757E-01
   0.12524E+03   0.29200E-01   0.12753E-01
   0.12845E+03   0.24705E-01   0.12825E-01
   0.13166E+03   0.21492E-01   0.12764E-01
   0.13487E+03   0.18828E-01   0.12262E-01
   0.13808E+03   0.18285E-01   0.12715E-01
   0.14129E+03   0.17672E-01   0.13237E-01
   0.14450E+03   0.17799E-01   0.14066E-01
   0.14771E+03   0.16125E-01   0.13653E-01
   0.15093E+03   0.15202E-01   0.13606E-01
   0.15414E+03   0.12200E-01   0.11815E-01
   0.15735E+03   0.41340E-02   0.57168E-02
   0.16056E+03   0.40667E-02   0.56975E-02
   0.16377E+03   0.42209E-02   0.59567E-02
   0.16698E+03   0.26553E-02   0.43933E-02
   0.17019E+03   0.27661E-02   0.46823E-02
   0.17340E+03   0.28390E-02   0.49363E-02
   0.17661E+03   0.29521E-02   0.52967E-02
   0.17983E+03   0.29959E-02   0.55813E-02
   0.18304E+03   0.31263E-02   0.61067E-02
   0.18625E+03   0.33057E-02   0.68627E-02
   0.18946E+03   0.34383E-02   0.76989E-02
   0.19267E+03   0.34454E-02   0.85755E-02
   0.19588E+03   0.35307E-02   0.10365E-01
   0.19909E+03   0.36263E-02   0.15606E-01
   0.20230E+03   0.29690E-02   0.13844E-01
   0.20552E+03   0.22434E-02   0.11273E-01
   0.20873E+03   0.16402E-02   0.97277E-02
   0.21194E+03   0.11179E-02   0.93102E-02
   0.21515E+03   0.55812E-03   0.87716E-02
   0.21836E+03   0.00000E+00   0.00000E+00
   0.22157E+03   0.00000E+00   0.00000E+00
   0.22478E+03   0.67639E-02   0.29867E-03
   0.22799E+03   0.77118E-02   0.76373E-03
   0.23121E+03   0.74274E-02   0.97973E-03
   0.23442E+03   0.99277E-02   0.17817E-02
   0.23763E+03   0.87056E-01   0.64560E-01
   0.24084E+03   0.46041E-01   0.32638E-01
   0.24405E+03   0.46316E-01   0.21648E-01
   0.24726E+03   0.26725E-01   0.15533E-01
   0.25047E+03   0.20702E-01   0.12159E-01
   0.25368E+03   0.19415E-01   0.11889E-01
   0.25689E+03   0.10001E-01   0.50320E-02
   0.26011E+03   0.10072E-01   0.54432E-02
   0.26332E+03   0.10155E-01   0.58109E-02
   0.26653E+03   0.10919E-01   0.66126E-02
   0.26974E+03   0.11300E-01   0.72034E-02
   0.27295E+03   0.11862E-01   0.79312E-02
   0.27616E+03   0.11163E-01   0.77321E-02
   0.27937E+03   0.92540E-02   0.65845E-02
   0.28258E+03   0.71838E-02   0.52241E-02
   0.28580E+03   0.81698E-02   0.60419E-02
   0.28901E+03   0.13702E-01   0.10294E-01
   0.29222E+03   0.11521E-03   0.86613E-04
   0.29543E+03   0.00000E+00   0.00000E+00
   0.29864E+03   0.00000E+00   0.00000E+00
   0.30185E+03   0.00000E+00   0.00000E+00
   0.30506E+03   0.00000E+00   0.00000E+00
   0.30827E+03   0.00000E+00   0.00000E+00
   0.31148E+03   0.00000E+00   0.00000E+00
   0.31470E+03   0.00000E+00   0.00000E+00
   0.31791E+03   0.00000E+00   0.00000E+00
   0.32112E+03   0.00000E+00   0.00000E+00
