  734

    1
0.0000000000e+00 0.0000000000e+00 0.0000000000e+00
0.0000000000e+00 0.0000000000e+00 0.0000000000e+00
     1      1      1
 1  1  1     0.0000000000e+00
 1  1  2    -1.4576267132e+02
 1  1  3     0.0000000000e+00
 1  2  1    -1.4576267132e+02
 1  2  2     0.0000000000e+00
 1  2  3     0.0000000000e+00
 1  3  1     0.0000000000e+00
 1  3  2     0.0000000000e+00
 1  3  3     0.0000000000e+00
 2  1  1    -1.4576267132e+02
 2  1  2     0.0000000000e+00
 2  1  3     0.0000000000e+00
 2  2  1     0.0000000000e+00
 2  2  2     1.4576267132e+02
 2  2  3     0.0000000000e+00
 2  3  1     0.0000000000e+00
 2  3  2     0.0000000000e+00
 2  3  3     0.0000000000e+00
 3  1  1     0.0000000000e+00
 3  1  2     0.0000000000e+00
 3  1  3     0.0000000000e+00
 3  2  1     0.0000000000e+00
 3  2  2     0.0000000000e+00
 3  2  3     0.0000000000e+00
 3  3  1     0.0000000000e+00
 3  3  2     0.0000000000e+00
 3  3  3     0.0000000000e+00

    2
0.0000000000e+00 0.0000000000e+00 0.0000000000e+00
0.0000000000e+00 0.0000000000e+00 0.0000000000e+00
     1      1      2
 1  1  1     0.0000000000e+00
 1  1  2     9.8923964354e+00
 1  1  3     0.0000000000e+00
 1  2  1     9.3915576882e+00
 1  2  2     0.0000000000e+00
 1  2  3     0.0000000000e+00
 1  3  1     0.0000000000e+00
 1  3  2     0.0000000000e+00
 1  3  3     0.0000000000e+00
 2  1  1     9.3915576882e+00
 2  1  2     0.0000000000e+00
 2  1  3     0.0000000000e+00
 2  2  1     0.0000000000e+00
 2  2  2    -1.6556827607e+02
 2  2  3     0.0000000000e+00
 2  3  1     0.0000000000e+00
 2  3  2     0.0000000000e+00
 2  3  3     1.1909788593e+01
 3  1  1     0.0000000000e+00
 3  1  2     0.0000000000e+00
 3  1  3     0.0000000000e+00
 3  2  1     0.0000000000e+00
 3  2  2     0.0000000000e+00
 3  2  3     1.1909788593e+01
 3  3  1     0.0000000000e+00
 3  3  2     1.1767878252e+01
 3  3  3     0.0000000000e+00

    3
0.0000000000e+00 0.0000000000e+00 0.0000000000e+00
2.5001441706e+00 0.0000000000e+00 0.0000000000e+00
     1      1      1
 1  1  1    -5.9733156527e+00
 1  1  2     3.8028342804e-01
 1  1  3     0.0000000000e+00
 1  2  1     1.3956456242e+00
 1  2  2     1.6586728207e+00
 1  2  3     0.0000000000e+00
 1  3  1     0.0000000000e+00
 1  3  2     0.0000000000e+00
 1  3  3     1.6720547681e+00
 2  1  1     1.3956456242e+00
 2  1  2     1.6586728207e+00
 2  1  3     0.0000000000e+00
 2  2  1     1.4529353920e+00
 2  2  2     1.5660066245e+00
 2  2  3     0.0000000000e+00
 2  3  1     0.0000000000e+00
 2  3  2     0.0000000000e+00
 2  3  3     5.8984694613e-01
 3  1  1     0.0000000000e+00
 3  1  2     0.0000000000e+00
 3  1  3     1.6720547681e+00
 3  2  1     0.0000000000e+00
 3  2  2     0.0000000000e+00
 3  2  3     5.8984694613e-01
 3  3  1    -7.0324337235e-02
 3  3  2     2.7059130650e-01
 3  3  3     0.0000000000e+00

    4
0.0000000000e+00 0.0000000000e+00 0.0000000000e+00
2.5001441706e+00 0.0000000000e+00 0.0000000000e+00
     1      1      2
 1  1  1    -1.0903729172e+00
 1  1  2     3.2195227278e-01
 1  1  3     0.0000000000e+00
 1  2  1    -9.6719751262e-01
 1  2  2    -1.1077486147e+00
 1  2  3     0.0000000000e+00
 1  3  1     0.0000000000e+00
 1  3  2     0.0000000000e+00
 1  3  3    -1.6934760190e-01
 2  1  1    -9.6719751262e-01
 2  1  2    -1.1077486147e+00
 2  1  3     0.0000000000e+00
 2  2  1     1.1251243122e+00
 2  2  2    -3.0188854557e-01
 2  2  3     0.0000000000e+00
 2  3  1     0.0000000000e+00
 2  3  2     0.0000000000e+00
 2  3  3    -9.7772883546e-02
 3  1  1     0.0000000000e+00
 3  1  2     0.0000000000e+00
 3  1  3    -1.6934760190e-01
 3  2  1     0.0000000000e+00
 3  2  2     0.0000000000e+00
 3  2  3    -9.7772883546e-02
 3  3  1    -3.6231637283e-01
 3  3  2    -2.0918345538e-01
 3  3  3     0.0000000000e+00

    5
0.0000000000e+00 0.0000000000e+00 0.0000000000e+00
-2.5001441706e+00 0.0000000000e+00 0.0000000000e+00
     1      1      1
 1  1  1     5.9733156527e+00
 1  1  2     3.8028342804e-01
 1  1  3     0.0000000000e+00
 1  2  1     1.3956456242e+00
 1  2  2    -1.6586728207e+00
 1  2  3     0.0000000000e+00
 1  3  1     0.0000000000e+00
 1  3  2     0.0000000000e+00
 1  3  3    -1.6720547681e+00
 2  1  1     1.3956456242e+00
 2  1  2    -1.6586728207e+00
 2  1  3     0.0000000000e+00
 2  2  1    -1.4529353920e+00
 2  2  2     1.5660066245e+00
 2  2  3     0.0000000000e+00
 2  3  1     0.0000000000e+00
 2  3  2     0.0000000000e+00
 2  3  3     5.8984694613e-01
 3  1  1     0.0000000000e+00
 3  1  2     0.0000000000e+00
 3  1  3    -1.6720547681e+00
 3  2  1     0.0000000000e+00
 3  2  2     0.0000000000e+00
 3  2  3     5.8984694613e-01
 3  3  1     7.0324337235e-02
 3  3  2     2.7059130650e-01
 3  3  3     0.0000000000e+00

    6
0.0000000000e+00 0.0000000000e+00 0.0000000000e+00
-2.5001441706e+00 0.0000000000e+00 0.0000000000e+00
     1      1      2
 1  1  1     1.0903729172e+00
 1  1  2     3.2195227278e-01
 1  1  3     0.0000000000e+00
 1  2  1    -9.6719751262e-01
 1  2  2     1.1077486147e+00
 1  2  3     0.0000000000e+00
 1  3  1     0.0000000000e+00
 1  3  2     0.0000000000e+00
 1  3  3     1.6934760190e-01
 2  1  1    -9.6719751262e-01
 2  1  2     1.1077486147e+00
 2  1  3     0.0000000000e+00
 2  2  1    -1.1251243122e+00
 2  2  2    -3.0188854557e-01
 2  2  3     0.0000000000e+00
 2  3  1     0.0000000000e+00
 2  3  2     0.0000000000e+00
 2  3  3    -9.7772883546e-02
 3  1  1     0.0000000000e+00
 3  1  2     0.0000000000e+00
 3  1  3     1.6934760190e-01
 3  2  1     0.0000000000e+00
 3  2  2     0.0000000000e+00
 3  2  3    -9.7772883546e-02
 3  3  1     3.6231637283e-01
 3  3  2    -2.0918345538e-01
 3  3  3     0.0000000000e+00

    7
0.0000000000e+00 0.0000000000e+00 0.0000000000e+00
-1.2500720853e+00 2.1651883648e+00 0.0000000000e+00
     1      1      1
 1  1  1    -2.7460081304e+00
 1  1  2    -6.5583164959e-01
 1  1  3     0.0000000000e+00
 1  2  1    -9.8533890786e-01
 1  2  2     2.3384634618e+00
 1  2  3     0.0000000000e+00
 1  3  1     0.0000000000e+00
 1  3  2     0.0000000000e+00
 1  3  3    -1.3468498238e+00
 2  1  1    -9.8533890786e-01
 2  1  2     2.3384634618e+00
 2  1  3     0.0000000000e+00
 2  2  1     3.3206616321e+00
 2  2  2    -4.2320775172e+00
 2  2  3     0.0000000000e+00
 2  3  1     0.0000000000e+00
 2  3  2     0.0000000000e+00
 2  3  3     1.1531184326e+00
 3  1  1     0.0000000000e+00
 3  1  2     0.0000000000e+00
 3  1  3    -1.3468498238e+00
 3  2  1     0.0000000000e+00
 3  2  2     0.0000000000e+00
 3  2  3     1.1531184326e+00
 3  3  1    -1.9917677686e-01
 3  3  2    -1.9619831580e-01
 3  3  3     0.0000000000e+00

    8
0.0000000000e+00 0.0000000000e+00 0.0000000000e+00
-1.2500720853e+00 2.1651883648e+00 0.0000000000e+00
     1      1      2
 1  1  1     6.5006381477e-01
 1  1  2    -8.5872424533e-01
 1  1  3     0.0000000000e+00
 1  2  1    -2.0361322245e-01
 1  2  2     1.0228716448e-01
 1  2  3     0.0000000000e+00
 1  3  1     0.0000000000e+00
 1  3  2     0.0000000000e+00
 1  3  3     6.7265961031e-02
 2  1  1    -2.0361322245e-01
 2  1  2     1.0228716448e-01
 2  1  3     0.0000000000e+00
 2  2  1     2.9092915111e-01
 2  2  2     7.4568660263e-01
 2  2  3     0.0000000000e+00
 2  3  1     0.0000000000e+00
 2  3  2     0.0000000000e+00
 2  3  3    -2.2000514517e-01
 3  1  1     0.0000000000e+00
 3  1  2     0.0000000000e+00
 3  1  3     6.7265961031e-02
 3  2  1     0.0000000000e+00
 3  2  2     0.0000000000e+00
 3  2  3    -2.2000514517e-01
 3  3  1     3.7409322594e-01
 3  3  2    -3.6363882537e-01
 3  3  3     0.0000000000e+00

    9
0.0000000000e+00 0.0000000000e+00 0.0000000000e+00
1.2500720853e+00 2.1651883648e+00 0.0000000000e+00
     1      1      1
 1  1  1     2.7460081304e+00
 1  1  2    -6.5583164959e-01
 1  1  3     0.0000000000e+00
 1  2  1    -9.8533890786e-01
 1  2  2    -2.3384634618e+00
 1  2  3     0.0000000000e+00
 1  3  1     0.0000000000e+00
 1  3  2     0.0000000000e+00
 1  3  3     1.3468498238e+00
 2  1  1    -9.8533890786e-01
 2  1  2    -2.3384634618e+00
 2  1  3     0.0000000000e+00
 2  2  1    -3.3206616321e+00
 2  2  2    -4.2320775172e+00
 2  2  3     0.0000000000e+00
 2  3  1     0.0000000000e+00
 2  3  2     0.0000000000e+00
 2  3  3     1.1531184326e+00
 3  1  1     0.0000000000e+00
 3  1  2     0.0000000000e+00
 3  1  3     1.3468498238e+00
 3  2  1     0.0000000000e+00
 3  2  2     0.0000000000e+00
 3  2  3     1.1531184326e+00
 3  3  1     1.9917677686e-01
 3  3  2    -1.9619831580e-01
 3  3  3     0.0000000000e+00

   10
0.0000000000e+00 0.0000000000e+00 0.0000000000e+00
1.2500720853e+00 2.1651883648e+00 0.0000000000e+00
     1      1      2
 1  1  1    -6.5006381477e-01
 1  1  2    -8.5872424533e-01
 1  1  3     0.0000000000e+00
 1  2  1    -2.0361322245e-01
 1  2  2    -1.0228716448e-01
 1  2  3     0.0000000000e+00
 1  3  1     0.0000000000e+00
 1  3  2     0.0000000000e+00
 1  3  3    -6.7265961031e-02
 2  1  1    -2.0361322245e-01
 2  1  2    -1.0228716448e-01
 2  1  3     0.0000000000e+00
 2  2  1    -2.9092915111e-01
 2  2  2     7.4568660263e-01
 2  2  3     0.0000000000e+00
 2  3  1     0.0000000000e+00
 2  3  2     0.0000000000e+00
 2  3  3    -2.2000514517e-01
 3  1  1     0.0000000000e+00
 3  1  2     0.0000000000e+00
 3  1  3    -6.7265961031e-02
 3  2  1     0.0000000000e+00
 3  2  2     0.0000000000e+00
 3  2  3    -2.2000514517e-01
 3  3  1    -3.7409322594e-01
 3  3  2    -3.6363882537e-01
 3  3  3     0.0000000000e+00

   11
0.0000000000e+00 0.0000000000e+00 0.0000000000e+00
3.7502162559e+00 2.1651883648e+00 0.0000000000e+00
     1      1      1
 1  1  1    -1.3570651969e-01
 1  1  2     3.7148365108e-02
 1  1  3     0.0000000000e+00
 1  2  1     2.8569934421e-01
 1  2  2     9.8265468130e-02
 1  2  3     0.0000000000e+00
 1  3  1     0.0000000000e+00
 1  3  2     0.0000000000e+00
 1  3  3    -2.3431813994e-02
 2  1  1     2.8569934421e-01
 2  1  2     9.8265468130e-02
 2  1  3     0.0000000000e+00
 2  2  1    -3.3223745595e-01
 2  2  2    -3.0731594541e-01
 2  2  3     0.0000000000e+00
 2  3  1     0.0000000000e+00
 2  3  2     0.0000000000e+00
 2  3  3    -1.3528364117e-02
 3  1  1     0.0000000000e+00
 3  1  2     0.0000000000e+00
 3  1  3    -2.3431813994e-02
 3  2  1     0.0000000000e+00
 3  2  2     0.0000000000e+00
 3  2  3    -1.3528364117e-02
 3  3  1     7.4510612168e-02
 3  3  2     4.3018721993e-02
 3  3  3     0.0000000000e+00

   12
0.0000000000e+00 0.0000000000e+00 0.0000000000e+00
-3.7502162559e+00 2.1651883648e+00 0.0000000000e+00
     1      1      1
 1  1  1     1.3570651969e-01
 1  1  2     3.7148365108e-02
 1  1  3     0.0000000000e+00
 1  2  1     2.8569934421e-01
 1  2  2    -9.8265468130e-02
 1  2  3     0.0000000000e+00
 1  3  1     0.0000000000e+00
 1  3  2     0.0000000000e+00
 1  3  3     2.3431813994e-02
 2  1  1     2.8569934421e-01
 2  1  2    -9.8265468130e-02
 2  1  3     0.0000000000e+00
 2  2  1     3.3223745595e-01
 2  2  2    -3.0731594541e-01
 2  2  3     0.0000000000e+00
 2  3  1     0.0000000000e+00
 2  3  2     0.0000000000e+00
 2  3  3    -1.3528364117e-02
 3  1  1     0.0000000000e+00
 3  1  2     0.0000000000e+00
 3  1  3     2.3431813994e-02
 3  2  1     0.0000000000e+00
 3  2  2     0.0000000000e+00
 3  2  3    -1.3528364117e-02
 3  3  1    -7.4510612168e-02
 3  3  2     4.3018721993e-02
 3  3  3     0.0000000000e+00

   13
0.0000000000e+00 0.0000000000e+00 0.0000000000e+00
2.5001441706e+00 -4.3303767297e+00 0.0000000000e+00
     1      1      2
 1  1  1     4.7732307331e-01
 1  1  2    -3.9586532525e-02
 1  1  3     0.0000000000e+00
 1  2  1    -5.3051079661e-01
 1  2  2     3.6830173427e-01
 1  2  3     0.0000000000e+00
 1  3  1     0.0000000000e+00
 1  3  2     0.0000000000e+00
 1  3  3    -1.5689706416e-01
 2  1  1    -5.3051079661e-01
 2  1  2     3.6830173427e-01
 2  1  3     0.0000000000e+00
 2  2  1    -1.0472006053e-01
 2  2  2     9.1102916711e-01
 2  2  3     0.0000000000e+00
 2  3  1     0.0000000000e+00
 2  3  2     0.0000000000e+00
 2  3  3     1.6825660365e-01
 3  1  1     0.0000000000e+00
 3  1  2     0.0000000000e+00
 3  1  3    -1.5689706416e-01
 3  2  1     0.0000000000e+00
 3  2  2     0.0000000000e+00
 3  2  3     1.6825660365e-01
 3  3  1    -1.2787384760e-01
 3  3  2     5.0579364973e-01
 3  3  3     0.0000000000e+00

   14
0.0000000000e+00 0.0000000000e+00 0.0000000000e+00
0.0000000000e+00 4.3303767297e+00 0.0000000000e+00
     1      1      1
 1  1  1     0.0000000000e+00
 1  1  2     5.9308572997e-01
 1  1  3     0.0000000000e+00
 1  2  1     8.9112826225e-02
 1  2  2     0.0000000000e+00
 1  2  3     0.0000000000e+00
 1  3  1     0.0000000000e+00
 1  3  2     0.0000000000e+00
 1  3  3     0.0000000000e+00
 2  1  1     8.9112826225e-02
 2  1  2     0.0000000000e+00
 2  1  3     0.0000000000e+00
 2  2  1     0.0000000000e+00
 2  2  2    -5.4195884618e-01
 2  2  3     0.0000000000e+00
 2  3  1     0.0000000000e+00
 2  3  2     0.0000000000e+00
 2  3  3     2.8718264804e-02
 3  1  1     0.0000000000e+00
 3  1  2     0.0000000000e+00
 3  1  3     0.0000000000e+00
 3  2  1     0.0000000000e+00
 3  2  2     0.0000000000e+00
 3  2  3     2.8718264804e-02
 3  3  1     0.0000000000e+00
 3  3  2     1.2192258480e-01
 3  3  3     0.0000000000e+00

   15
0.0000000000e+00 0.0000000000e+00 0.0000000000e+00
-2.5001441706e+00 -4.3303767297e+00 0.0000000000e+00
     1      1      2
 1  1  1    -4.7732307331e-01
 1  1  2    -3.9586532525e-02
 1  1  3     0.0000000000e+00
 1  2  1    -5.3051079661e-01
 1  2  2    -3.6830173427e-01
 1  2  3     0.0000000000e+00
 1  3  1     0.0000000000e+00
 1  3  2     0.0000000000e+00
 1  3  3     1.5689706416e-01
 2  1  1    -5.3051079661e-01
 2  1  2    -3.6830173427e-01
 2  1  3     0.0000000000e+00
 2  2  1     1.0472006053e-01
 2  2  2     9.1102916711e-01
 2  2  3     0.0000000000e+00
 2  3  1     0.0000000000e+00
 2  3  2     0.0000000000e+00
 2  3  3     1.6825660365e-01
 3  1  1     0.0000000000e+00
 3  1  2     0.0000000000e+00
 3  1  3     1.5689706416e-01
 3  2  1     0.0000000000e+00
 3  2  2     0.0000000000e+00
 3  2  3     1.6825660365e-01
 3  3  1     1.2787384760e-01
 3  3  2     5.0579364973e-01
 3  3  3     0.0000000000e+00

   16
0.0000000000e+00 0.0000000000e+00 0.0000000000e+00
0.0000000000e+00 -4.3303767297e+00 0.0000000000e+00
     1      1      1
 1  1  1     0.0000000000e+00
 1  1  2     6.1260051899e-01
 1  1  3     0.0000000000e+00
 1  2  1     1.1549856078e-01
 1  2  2     0.0000000000e+00
 1  2  3     0.0000000000e+00
 1  3  1     0.0000000000e+00
 1  3  2     0.0000000000e+00
 1  3  3     0.0000000000e+00
 2  1  1     1.1549856078e-01
 2  1  2     0.0000000000e+00
 2  1  3     0.0000000000e+00
 2  2  1     0.0000000000e+00
 2  2  2    -7.2265358386e-02
 2  2  3     0.0000000000e+00
 2  3  1     0.0000000000e+00
 2  3  2     0.0000000000e+00
 2  3  3     2.7056728234e-02
 3  1  1     0.0000000000e+00
 3  1  2     0.0000000000e+00
 3  1  3     0.0000000000e+00
 3  2  1     0.0000000000e+00
 3  2  2     0.0000000000e+00
 3  2  3     2.7056728234e-02
 3  3  1     0.0000000000e+00
 3  3  2    -8.6037443985e-02
 3  3  3     0.0000000000e+00

   17
0.0000000000e+00 0.0000000000e+00 0.0000000000e+00
5.5511151231e-16 -4.3303767297e+00 0.0000000000e+00
     1      1      2
 1  1  1     0.0000000000e+00
 1  1  2    -1.6268202007e+00
 1  1  3     0.0000000000e+00
 1  2  1     9.5147937007e-01
 1  2  2     0.0000000000e+00
 1  2  3     0.0000000000e+00
 1  3  1     0.0000000000e+00
 1  3  2     0.0000000000e+00
 1  3  3     0.0000000000e+00
 2  1  1     9.5147937007e-01
 2  1  2     0.0000000000e+00
 2  1  3     0.0000000000e+00
 2  2  1     0.0000000000e+00
 2  2  2     1.5866927463e+00
 2  2  3     0.0000000000e+00
 2  3  1     0.0000000000e+00
 2  3  2     0.0000000000e+00
 2  3  3     1.9554576709e-01
 3  1  1     0.0000000000e+00
 3  1  2     0.0000000000e+00
 3  1  3     0.0000000000e+00
 3  2  1     0.0000000000e+00
 3  2  2     0.0000000000e+00
 3  2  3     1.9554576709e-01
 3  3  1     0.0000000000e+00
 3  3  2     4.1836691077e-01
 3  3  3     0.0000000000e+00

   18
0.0000000000e+00 0.0000000000e+00 0.0000000000e+00
1.2500720853e+00 -2.1651883648e+00 0.0000000000e+00
     1      1      1
 1  1  1    -6.6162626845e-01
 1  1  2     1.4797242605e+00
 1  1  3     0.0000000000e+00
 1  2  1     7.9386932260e-01
 1  2  2    -4.0605612320e+00
 1  2  3     0.0000000000e+00
 1  3  1     0.0000000000e+00
 1  3  2     0.0000000000e+00
 1  3  3     3.2520494437e-01
 2  1  1     7.9386932260e-01
 2  1  2    -4.0605612320e+00
 2  1  3     0.0000000000e+00
 2  2  1    -3.2841004905e+00
 2  2  2     1.4618948538e+00
 2  2  3     0.0000000000e+00
 2  3  1     0.0000000000e+00
 2  3  2     0.0000000000e+00
 2  3  3    -1.7429653788e+00
 3  1  1     0.0000000000e+00
 3  1  2     0.0000000000e+00
 3  1  3     3.2520494437e-01
 3  2  1     0.0000000000e+00
 3  2  2     0.0000000000e+00
 3  2  3    -1.7429653788e+00
 3  3  1    -2.6950111409e-01
 3  3  2    -7.4392990702e-02
 3  3  3     0.0000000000e+00

   19
0.0000000000e+00 0.0000000000e+00 0.0000000000e+00
1.2500720853e+00 -2.1651883648e+00 0.0000000000e+00
     1      1      2
 1  1  1    -1.0133131943e+02
 1  1  2     6.7895222239e+01
 1  1  3     0.0000000000e+00
 1  2  1     6.8145641612e+01
 1  2  2    -3.3921686170e+01
 1  2  3     0.0000000000e+00
 1  3  1     0.0000000000e+00
 1  3  2     0.0000000000e+00
 1  3  3     1.0314179475e+01
 2  1  1     6.8145641612e+01
 2  1  2    -3.3921686170e+01
 2  1  3     0.0000000000e+00
 2  2  1    -3.3487947091e+01
 2  2  2     9.9427175796e+00
 2  2  3     0.0000000000e+00
 2  3  1     0.0000000000e+00
 2  3  2     0.0000000000e+00
 2  3  3    -5.9548942964e+00
 3  1  1     0.0000000000e+00
 3  1  2     0.0000000000e+00
 3  1  3     1.0314179475e+01
 3  2  1     0.0000000000e+00
 3  2  2     0.0000000000e+00
 3  2  3    -5.9548942964e+00
 3  3  1     1.0191281515e+01
 3  3  2    -5.8839391262e+00
 3  3  3     0.0000000000e+00

   20
0.0000000000e+00 0.0000000000e+00 0.0000000000e+00
3.7502162559e+00 -2.1651883648e+00 0.0000000000e+00
     1      1      1
 1  1  1    -1.8501878360e-01
 1  1  2     1.9593347074e-01
 1  1  3     0.0000000000e+00
 1  2  1     4.4791992261e-01
 1  2  2    -2.0715737369e-01
 1  2  3     0.0000000000e+00
 1  3  1     0.0000000000e+00
 1  3  2     0.0000000000e+00
 1  3  3     2.4870746873e-02
 2  1  1     4.4791992261e-01
 2  1  2    -2.0715737369e-01
 2  1  3     0.0000000000e+00
 2  2  1     2.2929596377e-01
 2  2  2    -2.2149691263e-01
 2  2  3     0.0000000000e+00
 2  3  1     0.0000000000e+00
 2  3  2     0.0000000000e+00
 2  3  3    -1.4359132402e-02
 3  1  1     0.0000000000e+00
 3  1  2     0.0000000000e+00
 3  1  3     2.4870746873e-02
 3  2  1     0.0000000000e+00
 3  2  2     0.0000000000e+00
 3  2  3    -1.4359132402e-02
 3  3  1     1.0558805573e-01
 3  3  2    -6.0961292401e-02
 3  3  3     0.0000000000e+00

   21
0.0000000000e+00 0.0000000000e+00 0.0000000000e+00
3.7502162559e+00 -2.1651883648e+00 0.0000000000e+00
     1      1      2
 1  1  1    -5.6820490437e-02
 1  1  2    -6.1041719179e-01
 1  1  3     0.0000000000e+00
 1  2  1    -7.7460395059e-01
 1  2  2     1.5009431877e-01
 1  2  3     0.0000000000e+00
 1  3  1     0.0000000000e+00
 1  3  2     0.0000000000e+00
 1  3  3    -2.2416302520e-01
 2  1  1    -7.7460395059e-01
 2  1  2     1.5009431877e-01
 2  1  3     0.0000000000e+00
 2  2  1    -5.1156946267e-01
 2  2  2    -1.4798780010e-01
 2  2  3     0.0000000000e+00
 2  3  1     0.0000000000e+00
 2  3  2     0.0000000000e+00
 2  3  3     5.1748541522e-02
 3  1  1     0.0000000000e+00
 3  1  2     0.0000000000e+00
 3  1  3    -2.2416302520e-01
 3  2  1     0.0000000000e+00
 3  2  2     0.0000000000e+00
 3  2  3     5.1748541522e-02
 3  3  1    -5.0196707354e-01
 3  3  2    -1.4215482437e-01
 3  3  3     0.0000000000e+00

   22
0.0000000000e+00 0.0000000000e+00 0.0000000000e+00
-3.7502162559e+00 -2.1651883648e+00 0.0000000000e+00
     1      1      1
 1  1  1     1.8501878360e-01
 1  1  2     1.9593347074e-01
 1  1  3     0.0000000000e+00
 1  2  1     4.4791992261e-01
 1  2  2     2.0715737369e-01
 1  2  3     0.0000000000e+00
 1  3  1     0.0000000000e+00
 1  3  2     0.0000000000e+00
 1  3  3    -2.4870746873e-02
 2  1  1     4.4791992261e-01
 2  1  2     2.0715737369e-01
 2  1  3     0.0000000000e+00
 2  2  1    -2.2929596377e-01
 2  2  2    -2.2149691263e-01
 2  2  3     0.0000000000e+00
 2  3  1     0.0000000000e+00
 2  3  2     0.0000000000e+00
 2  3  3    -1.4359132402e-02
 3  1  1     0.0000000000e+00
 3  1  2     0.0000000000e+00
 3  1  3    -2.4870746873e-02
 3  2  1     0.0000000000e+00
 3  2  2     0.0000000000e+00
 3  2  3    -1.4359132402e-02
 3  3  1    -1.0558805573e-01
 3  3  2    -6.0961292401e-02
 3  3  3     0.0000000000e+00

   23
0.0000000000e+00 0.0000000000e+00 0.0000000000e+00
-3.7502162559e+00 -2.1651883648e+00 0.0000000000e+00
     1      1      2
 1  1  1     5.6820490437e-02
 1  1  2    -6.1041719179e-01
 1  1  3     0.0000000000e+00
 1  2  1    -7.7460395059e-01
 1  2  2    -1.5009431877e-01
 1  2  3     0.0000000000e+00
 1  3  1     0.0000000000e+00
 1  3  2     0.0000000000e+00
 1  3  3     2.2416302520e-01
 2  1  1    -7.7460395059e-01
 2  1  2    -1.5009431877e-01
 2  1  3     0.0000000000e+00
 2  2  1     5.1156946267e-01
 2  2  2    -1.4798780010e-01
 2  2  3     0.0000000000e+00
 2  3  1     0.0000000000e+00
 2  3  2     0.0000000000e+00
 2  3  3     5.1748541522e-02
 3  1  1     0.0000000000e+00
 3  1  2     0.0000000000e+00
 3  1  3     2.2416302520e-01
 3  2  1     0.0000000000e+00
 3  2  2     0.0000000000e+00
 3  2  3     5.1748541522e-02
 3  3  1     5.0196707354e-01
 3  3  2    -1.4215482437e-01
 3  3  3     0.0000000000e+00

   24
0.0000000000e+00 0.0000000000e+00 0.0000000000e+00
-1.2500720853e+00 -2.1651883648e+00 0.0000000000e+00
     1      1      1
 1  1  1     6.6162626845e-01
 1  1  2     1.4797242605e+00
 1  1  3     0.0000000000e+00
 1  2  1     7.9386932260e-01
 1  2  2     4.0605612320e+00
 1  2  3     0.0000000000e+00
 1  3  1     0.0000000000e+00
 1  3  2     0.0000000000e+00
 1  3  3    -3.2520494437e-01
 2  1  1     7.9386932260e-01
 2  1  2     4.0605612320e+00
 2  1  3     0.0000000000e+00
 2  2  1     3.2841004905e+00
 2  2  2     1.4618948538e+00
 2  2  3     0.0000000000e+00
 2  3  1     0.0000000000e+00
 2  3  2     0.0000000000e+00
 2  3  3    -1.7429653788e+00
 3  1  1     0.0000000000e+00
 3  1  2     0.0000000000e+00
 3  1  3    -3.2520494437e-01
 3  2  1     0.0000000000e+00
 3  2  2     0.0000000000e+00
 3  2  3    -1.7429653788e+00
 3  3  1     2.6950111409e-01
 3  3  2    -7.4392990702e-02
 3  3  3     0.0000000000e+00

   25
0.0000000000e+00 0.0000000000e+00 0.0000000000e+00
-1.2500720853e+00 -2.1651883648e+00 0.0000000000e+00
     1      1      2
 1  1  1     1.0133131943e+02
 1  1  2     6.7895222239e+01
 1  1  3     0.0000000000e+00
 1  2  1     6.8145641612e+01
 1  2  2     3.3921686170e+01
 1  2  3     0.0000000000e+00
 1  3  1     0.0000000000e+00
 1  3  2     0.0000000000e+00
 1  3  3    -1.0314179475e+01
 2  1  1     6.8145641612e+01
 2  1  2     3.3921686170e+01
 2  1  3     0.0000000000e+00
 2  2  1     3.3487947091e+01
 2  2  2     9.9427175796e+00
 2  2  3     0.0000000000e+00
 2  3  1     0.0000000000e+00
 2  3  2     0.0000000000e+00
 2  3  3    -5.9548942964e+00
 3  1  1     0.0000000000e+00
 3  1  2     0.0000000000e+00
 3  1  3    -1.0314179475e+01
 3  2  1     0.0000000000e+00
 3  2  2     0.0000000000e+00
 3  2  3    -5.9548942964e+00
 3  3  1    -1.0191281515e+01
 3  3  2    -5.8839391262e+00
 3  3  3     0.0000000000e+00

   26
0.0000000000e+00 0.0000000000e+00 0.0000000000e+00
0.0000000000e+00 0.0000000000e+00 0.0000000000e+00
     1      2      1
 1  1  1     0.0000000000e+00
 1  1  2     9.3915576882e+00
 1  1  3     0.0000000000e+00
 1  2  1     9.8923964354e+00
 1  2  2     0.0000000000e+00
 1  2  3     0.0000000000e+00
 1  3  1     0.0000000000e+00
 1  3  2     0.0000000000e+00
 1  3  3     0.0000000000e+00
 2  1  1     9.3915576882e+00
 2  1  2     0.0000000000e+00
 2  1  3     0.0000000000e+00
 2  2  1     0.0000000000e+00
 2  2  2    -1.6556827607e+02
 2  2  3     0.0000000000e+00
 2  3  1     0.0000000000e+00
 2  3  2     0.0000000000e+00
 2  3  3     1.1909788593e+01
 3  1  1     0.0000000000e+00
 3  1  2     0.0000000000e+00
 3  1  3     0.0000000000e+00
 3  2  1     0.0000000000e+00
 3  2  2     0.0000000000e+00
 3  2  3     1.1767878252e+01
 3  3  1     0.0000000000e+00
 3  3  2     1.1909788593e+01
 3  3  3     0.0000000000e+00

   27
0.0000000000e+00 0.0000000000e+00 0.0000000000e+00
0.0000000000e+00 0.0000000000e+00 0.0000000000e+00
     1      2      2
 1  1  1     0.0000000000e+00
 1  1  2    -1.2069983692e+01
 1  1  3     0.0000000000e+00
 1  2  1    -1.2069983692e+01
 1  2  2     0.0000000000e+00
 1  2  3     0.0000000000e+00
 1  3  1     0.0000000000e+00
 1  3  2     0.0000000000e+00
 1  3  3     0.0000000000e+00
 2  1  1    -1.2325535953e+01
 2  1  2     0.0000000000e+00
 2  1  3     0.0000000000e+00
 2  2  1     0.0000000000e+00
 2  2  2     1.6373670747e+02
 2  2  3     0.0000000000e+00
 2  3  1     0.0000000000e+00
 2  3  2     0.0000000000e+00
 2  3  3    -1.1695738964e+01
 3  1  1     0.0000000000e+00
 3  1  2     0.0000000000e+00
 3  1  3     0.0000000000e+00
 3  2  1     0.0000000000e+00
 3  2  2     0.0000000000e+00
 3  2  3    -1.3565675993e+01
 3  3  1     0.0000000000e+00
 3  3  2    -1.3565675993e+01
 3  3  3     0.0000000000e+00

   28
0.0000000000e+00 0.0000000000e+00 0.0000000000e+00
2.5001441706e+00 0.0000000000e+00 0.0000000000e+00
     1      2      1
 1  1  1     9.1792106122e-01
 1  1  2     2.3992952825e-01
 1  1  3     0.0000000000e+00
 1  2  1    -7.7869244214e-01
 1  2  2    -1.6000047184e-01
 1  2  3     0.0000000000e+00
 1  3  1     0.0000000000e+00
 1  3  2     0.0000000000e+00
 1  3  3    -4.6684181790e-01
 2  1  1     5.3342936496e-01
 2  1  2     4.3335153022e-01
 2  1  3     0.0000000000e+00
 2  2  1    -8.3112348386e-01
 2  2  2    -1.1277351019e+00
 2  2  3     0.0000000000e+00
 2  3  1     0.0000000000e+00
 2  3  2     0.0000000000e+00
 2  3  3     1.1165288966e-01
 3  1  1     0.0000000000e+00
 3  1  2     0.0000000000e+00
 3  1  3    -1.6610671811e-02
 3  2  1     0.0000000000e+00
 3  2  2     0.0000000000e+00
 3  2  3    -1.4073391052e-01
 3  3  1     5.1962286180e-01
 3  3  2     7.7170533062e-01
 3  3  3     0.0000000000e+00

   29
0.0000000000e+00 0.0000000000e+00 0.0000000000e+00
2.5001441706e+00 0.0000000000e+00 0.0000000000e+00
     1      2      2
 1  1  1     4.0253227422e-01
 1  1  2    -4.8198017108e-01
 1  1  3     0.0000000000e+00
 1  2  1     4.3478213662e-01
 1  2  2     1.0508961339e-01
 1  2  3     0.0000000000e+00
 1  3  1     0.0000000000e+00
 1  3  2     0.0000000000e+00
 1  3  3     1.1266419989e-01
 2  1  1     9.4751491988e-01
 2  1  2    -8.8999058910e-01
 2  1  3     0.0000000000e+00
 2  2  1    -1.4516776856e+00
 2  2  2     5.3982396910e-01
 2  2  3     0.0000000000e+00
 2  3  1     0.0000000000e+00
 2  3  2     0.0000000000e+00
 2  3  3    -3.8526578122e-02
 3  1  1     0.0000000000e+00
 3  1  2     0.0000000000e+00
 3  1  3    -2.2649548880e-01
 3  2  1     0.0000000000e+00
 3  2  2     0.0000000000e+00
 3  2  3    -2.1740242105e-01
 3  3  1     5.3721567536e-01
 3  3  2    -4.3077838833e-01
 3  3  3     0.0000000000e+00

   30
0.0000000000e+00 0.0000000000e+00 0.0000000000e+00
-2.5001441706e+00 0.0000000000e+00 0.0000000000e+00
     1      2      1
 1  1  1    -9.1792106122e-01
 1  1  2     2.3992952825e-01
 1  1  3     0.0000000000e+00
 1  2  1    -7.7869244214e-01
 1  2  2     1.6000047184e-01
 1  2  3     0.0000000000e+00
 1  3  1     0.0000000000e+00
 1  3  2     0.0000000000e+00
 1  3  3     4.6684181790e-01
 2  1  1     5.3342936496e-01
 2  1  2    -4.3335153022e-01
 2  1  3     0.0000000000e+00
 2  2  1     8.3112348386e-01
 2  2  2    -1.1277351019e+00
 2  2  3     0.0000000000e+00
 2  3  1     0.0000000000e+00
 2  3  2     0.0000000000e+00
 2  3  3     1.1165288966e-01
 3  1  1     0.0000000000e+00
 3  1  2     0.0000000000e+00
 3  1  3     1.6610671811e-02
 3  2  1     0.0000000000e+00
 3  2  2     0.0000000000e+00
 3  2  3    -1.4073391052e-01
 3  3  1    -5.1962286180e-01
 3  3  2     7.7170533062e-01
 3  3  3     0.0000000000e+00

   31
0.0000000000e+00 0.0000000000e+00 0.0000000000e+00
-2.5001441706e+00 0.0000000000e+00 0.0000000000e+00
     1      2      2
 1  1  1    -4.0253227422e-01
 1  1  2    -4.8198017108e-01
 1  1  3     0.0000000000e+00
 1  2  1     4.3478213662e-01
 1  2  2    -1.0508961339e-01
 1  2  3     0.0000000000e+00
 1  3  1     0.0000000000e+00
 1  3  2     0.0000000000e+00
 1  3  3    -1.1266419989e-01
 2  1  1     9.4751491988e-01
 2  1  2     8.8999058910e-01
 2  1  3     0.0000000000e+00
 2  2  1     1.4516776856e+00
 2  2  2     5.3982396910e-01
 2  2  3     0.0000000000e+00
 2  3  1     0.0000000000e+00
 2  3  2     0.0000000000e+00
 2  3  3    -3.8526578122e-02
 3  1  1     0.0000000000e+00
 3  1  2     0.0000000000e+00
 3  1  3     2.2649548880e-01
 3  2  1     0.0000000000e+00
 3  2  2     0.0000000000e+00
 3  2  3    -2.1740242105e-01
 3  3  1    -5.3721567536e-01
 3  3  2    -4.3077838833e-01
 3  3  3     0.0000000000e+00

   32
0.0000000000e+00 0.0000000000e+00 0.0000000000e+00
-1.2500720853e+00 2.1651883648e+00 0.0000000000e+00
     1      2      1
 1  1  1     1.6614370962e+00
 1  1  2     1.2636640427e+00
 1  1  3     0.0000000000e+00
 1  2  1     1.0069257276e+00
 1  2  2     7.0204030075e-01
 1  2  3     0.0000000000e+00
 1  3  1     0.0000000000e+00
 1  3  2     0.0000000000e+00
 1  3  3     1.6085391601e+00
 2  1  1    -4.5897592667e-01
 2  1  2     1.2519231448e+00
 2  1  3     0.0000000000e+00
 2  2  1    -2.9252634930e-01
 2  2  2     6.7510359177e-01
 2  2  3     0.0000000000e+00
 2  3  1     0.0000000000e+00
 2  3  2     0.0000000000e+00
 2  3  3     2.5304563240e-02
 3  1  1     0.0000000000e+00
 3  1  2     0.0000000000e+00
 3  1  3     8.4076343258e-01
 3  2  1     0.0000000000e+00
 3  2  2     0.0000000000e+00