 1989

    1
0.0000000000e+00 0.0000000000e+00 0.0000000000e+00
0.0000000000e+00 0.0000000000e+00 0.0000000000e+00
     1      1      1
 1  1  1     0.0000000000e+00
 1  1  2    -1.6687751384e+01
 1  1  3     0.0000000000e+00
 1  2  1    -1.6687751384e+01
 1  2  2     0.0000000000e+00
 1  2  3     0.0000000000e+00
 1  3  1     0.0000000000e+00
 1  3  2     0.0000000000e+00
 1  3  3     0.0000000000e+00
 2  1  1    -1.6687751384e+01
 2  1  2     0.0000000000e+00
 2  1  3     0.0000000000e+00
 2  2  1     0.0000000000e+00
 2  2  2     1.6687751379e+01
 2  2  3     0.0000000000e+00
 2  3  1     0.0000000000e+00
 2  3  2     0.0000000000e+00
 2  3  3     0.0000000000e+00
 3  1  1     0.0000000000e+00
 3  1  2     0.0000000000e+00
 3  1  3     0.0000000000e+00
 3  2  1     0.0000000000e+00
 3  2  2     0.0000000000e+00
 3  2  3     0.0000000000e+00
 3  3  1     0.0000000000e+00
 3  3  2     0.0000000000e+00
 3  3  3     0.0000000000e+00

    2
0.0000000000e+00 0.0000000000e+00 0.0000000000e+00
0.0000000000e+00 0.0000000000e+00 0.0000000000e+00
     1      1      2
 1  1  1    -9.1157643581e+00
 1  1  2     5.1107222787e+00
 1  1  3    -1.0152700065e+01
 1  2  1     3.7231821897e+00
 1  2  2    -2.2374914747e+00
 1  2  3     4.6354665399e+00
 1  3  1    -1.0321610507e+01
 1  3  2     6.0243558140e+00
 1  3  3    -9.4755145230e+00
 2  1  1     3.7231821897e+00
 2  1  2    -2.2374914747e+00
 2  1  3     4.6354665399e+00
 2  2  1    -4.6407814060e+00
 2  2  2     2.8316231201e+00
 2  2  3    -4.8001243539e+00
 2  3  1     6.0243558140e+00
 2  3  2    -3.3652836035e+00
 2  3  3     5.4706908597e+00
 3  1  1    -1.0321610507e+01
 3  1  2     6.0243558140e+00
 3  1  3    -9.4755145230e+00
 3  2  1     6.0243558140e+00
 3  2  2    -3.3652836035e+00
 3  2  3     5.4706908597e+00
 3  3  1    -9.6658514004e+00
 3  3  2     5.5805819071e+00
 3  3  3    -9.7388234093e+00

    3
0.0000000000e+00 0.0000000000e+00 0.0000000000e+00
0.0000000000e+00 0.0000000000e+00 0.0000000000e+00
     1      1      3
 1  1  1    -9.1157643581e+00
 1  1  2     5.1107222787e+00
 1  1  3     1.0152700065e+01
 1  2  1     3.7231821897e+00
 1  2  2    -2.2374914747e+00
 1  2  3    -4.6354665399e+00
 1  3  1     1.0321610507e+01
 1  3  2    -6.0243558140e+00
 1  3  3    -9.4755145230e+00
 2  1  1     3.7231821897e+00
 2  1  2    -2.2374914747e+00
 2  1  3    -4.6354665399e+00
 2  2  1    -4.6407814060e+00
 2  2  2     2.8316231201e+00
 2  2  3     4.8001243539e+00
 2  3  1    -6.0243558140e+00
 2  3  2     3.3652836035e+00
 2  3  3     5.4706908597e+00
 3  1  1     1.0321610507e+01
 3  1  2    -6.0243558140e+00
 3  1  3    -9.4755145230e+00
 3  2  1    -6.0243558140e+00
 3  2  2     3.3652836035e+00
 3  2  3     5.4706908597e+00
 3  3  1    -9.6658514004e+00
 3  3  2     5.5805819071e+00
 3  3  3     9.7388234093e+00

    4
0.0000000000e+00 0.0000000000e+00 0.0000000000e+00
3.1857561780e+00 0.0000000000e+00 0.0000000000e+00
     1      1      1
 1  1  1    -6.5910232113e+00
 1  1  2     2.7501233843e+00
 1  1  3     0.0000000000e+00
 1  2  1     2.8469076285e-01
 1  2  2    -3.1932875589e-01
 1  2  3     0.0000000000e+00
 1  3  1     0.0000000000e+00
 1  3  2     0.0000000000e+00
 1  3  3    -8.5648948447e-01
 2  1  1     2.8469076285e-01
 2  1  2    -3.1932875589e-01
 2  1  3     0.0000000000e+00
 2  2  1     4.5749029518e-01
 2  2  2     2.9087942741e-01
 2  2  3     0.0000000000e+00
 2  3  1     0.0000000000e+00
 2  3  2     0.0000000000e+00
 2  3  3    -1.3278306554e+00
 3  1  1     0.0000000000e+00
 3  1  2     0.0000000000e+00
 3  1  3    -8.5648948447e-01
 3  2  1     0.0000000000e+00
 3  2  2     0.0000000000e+00
 3  2  3    -1.3278306554e+00
 3  3  1    -1.8395911552e+00
 3  3  2    -1.0956248193e+00
 3  3  3     0.0000000000e+00

    5
0.0000000000e+00 0.0000000000e+00 0.0000000000e+00
3.1857561780e+00 0.0000000000e+00 0.0000000000e+00
     1      1      2
 1  1  1    -2.0611660194e-02
 1  1  2    -1.1188637403e-01
 1  1  3     6.8001535670e-02
 1  2  1     2.1166842641e-02
 1  2  2     3.5522648985e-02
 1  2  3     5.4047949605e-02
 1  3  1    -1.0173173863e-01
 1  3  2     8.4057717287e-02
 1  3  3    -8.4693887826e-03
 2  1  1     2.1166842641e-02
 2  1  2     3.5522648985e-02
 2  1  3     5.4047949605e-02
 2  2  1     4.7762995156e-02
 2  2  2     2.4369589114e-02
 2  2  3     1.2854345852e-01
 2  3  1    -6.0016710136e-02
 2  3  2    -7.2517683669e-02
 2  3  3     1.7585416778e-01
 3  1  1    -1.0173173863e-01
 3  1  2     8.4057717287e-02
 3  1  3    -8.4693887826e-03
 3  2  1    -6.0016710136e-02
 3  2  2    -7.2517683669e-02
 3  2  3     1.7585416778e-01
 3  3  1     1.6722577124e-01
 3  3  2     7.3897744100e-02
 3  3  3    -1.5427436781e-01

    6
0.0000000000e+00 0.0000000000e+00 0.0000000000e+00
3.1857561780e+00 0.0000000000e+00 0.0000000000e+00
     1      1      3
 1  1  1    -2.0611660194e-02
 1  1  2    -1.1188637403e-01
 1  1  3    -6.8001535670e-02
 1  2  1     2.1166842641e-02
 1  2  2     3.5522648985e-02
 1  2  3    -5.4047949605e-02
 1  3  1     1.0173173863e-01
 1  3  2    -8.4057717287e-02
 1  3  3    -8.4693887826e-03
 2  1  1     2.1166842641e-02
 2  1  2     3.5522648985e-02
 2  1  3    -5.4047949605e-02
 2  2  1     4.7762995156e-02
 2  2  2     2.4369589114e-02
 2  2  3    -1.2854345852e-01
 2  3  1     6.0016710136e-02
 2  3  2     7.2517683669e-02
 2  3  3     1.7585416778e-01
 3  1  1     1.0173173863e-01
 3  1  2    -8.4057717287e-02
 3  1  3    -8.4693887826e-03
 3  2  1     6.0016710136e-02
 3  2  2     7.2517683669e-02
 3  2  3     1.7585416778e-01
 3  3  1     1.6722577124e-01
 3  3  2     7.3897744100e-02
 3  3  3     1.5427436781e-01

    7
0.0000000000e+00 0.0000000000e+00 0.0000000000e+00
-6.3715123560e+00 0.0000000000e+00 0.0000000000e+00
     1      1      2
 1  1  1     2.0611660194e-02
 1  1  2    -1.1188637403e-01
 1  1  3     6.8001535670e-02
 1  2  1     2.1166842641e-02
 1  2  2    -3.5522648985e-02
 1  2  3    -5.4047949605e-02
 1  3  1    -1.0173173863e-01
 1  3  2    -8.4057717287e-02
 1  3  3     8.4693887826e-03
 2  1  1     2.1166842641e-02
 2  1  2    -3.5522648985e-02
 2  1  3    -5.4047949605e-02
 2  2  1    -4.7762995156e-02
 2  2  2     2.4369589114e-02
 2  2  3     1.2854345852e-01
 2  3  1     6.0016710136e-02
 2  3  2    -7.2517683669e-02
 2  3  3     1.7585416778e-01
 3  1  1    -1.0173173863e-01
 3  1  2    -8.4057717287e-02
 3  1  3     8.4693887826e-03
 3  2  1     6.0016710136e-02
 3  2  2    -7.2517683669e-02
 3  2  3     1.7585416778e-01
 3  3  1    -1.6722577124e-01
 3  3  2     7.3897744100e-02
 3  3  3    -1.5427436781e-01

    8
0.0000000000e+00 0.0000000000e+00 0.0000000000e+00
-6.3715123560e+00 0.0000000000e+00 0.0000000000e+00
     1      1      3
 1  1  1     2.0611660194e-02
 1  1  2    -1.1188637403e-01
 1  1  3    -6.8001535670e-02
 1  2  1     2.1166842641e-02
 1  2  2    -3.5522648985e-02
 1  2  3     5.4047949605e-02
 1  3  1     1.0173173863e-01
 1  3  2     8.4057717287e-02
 1  3  3     8.4693887826e-03
 2  1  1     2.1166842641e-02
 2  1  2    -3.5522648985e-02
 2  1  3     5.4047949605e-02
 2  2  1    -4.7762995156e-02
 2  2  2     2.4369589114e-02
 2  2  3    -1.2854345852e-01
 2  3  1    -6.0016710136e-02
 2  3  2     7.2517683669e-02
 2  3  3     1.7585416778e-01
 3  1  1     1.0173173863e-01
 3  1  2     8.4057717287e-02
 3  1  3     8.4693887826e-03
 3  2  1    -6.0016710136e-02
 3  2  2     7.2517683669e-02
 3  2  3     1.7585416778e-01
 3  3  1    -1.6722577124e-01
 3  3  2     7.3897744100e-02
 3  3  3     1.5427436781e-01

    9
0.0000000000e+00 0.0000000000e+00 0.0000000000e+00
-3.1857561780e+00 0.0000000000e+00 0.0000000000e+00
     1      1      1
 1  1  1     6.5910232113e+00
 1  1  2     2.7501233843e+00
 1  1  3     0.0000000000e+00
 1  2  1     2.8469076285e-01
 1  2  2     3.1932875589e-01
 1  2  3     0.0000000000e+00
 1  3  1     0.0000000000e+00
 1  3  2     0.0000000000e+00
 1  3  3     8.5648948447e-01
 2  1  1     2.8469076285e-01
 2  1  2     3.1932875589e-01
 2  1  3     0.0000000000e+00
 2  2  1    -4.5749029518e-01
 2  2  2     2.9087942741e-01
 2  2  3     0.0000000000e+00
 2  3  1     0.0000000000e+00
 2  3  2     0.0000000000e+00
 2  3  3    -1.3278306554e+00
 3  1  1     0.0000000000e+00
 3  1  2     0.0000000000e+00
 3  1  3     8.5648948447e-01
 3  2  1     0.0000000000e+00
 3  2  2     0.0000000000e+00
 3  2  3    -1.3278306554e+00
 3  3  1     1.8395911552e+00
 3  3  2    -1.0956248193e+00
 3  3  3     0.0000000000e+00

   10
0.0000000000e+00 0.0000000000e+00 0.0000000000e+00
-3.1857561780e+00 0.0000000000e+00 0.0000000000e+00
     1      1      2
 1  1  1     9.1157643581e+00
 1  1  2     5.1107222787e+00
 1  1  3    -1.0152700065e+01
 1  2  1     3.7231821897e+00
 1  2  2     2.2374914747e+00
 1  2  3    -4.6354665399e+00
 1  3  1    -1.0321610507e+01
 1  3  2    -6.0243558140e+00
 1  3  3     9.4755145230e+00
 2  1  1     3.7231821897e+00
 2  1  2     2.2374914747e+00
 2  1  3    -4.6354665399e+00
 2  2  1     4.6407814060e+00
 2  2  2     2.8316231201e+00
 2  2  3    -4.8001243539e+00
 2  3  1    -6.0243558140e+00
 2  3  2    -3.3652836035e+00
 2  3  3     5.4706908597e+00
 3  1  1    -1.0321610507e+01
 3  1  2    -6.0243558140e+00
 3  1  3     9.4755145230e+00
 3  2  1    -6.0243558140e+00
 3  2  2    -3.3652836035e+00
 3  2  3     5.4706908597e+00
 3  3  1     9.6658514004e+00
 3  3  2     5.5805819071e+00
 3  3  3    -9.7388234093e+00

   11
0.0000000000e+00 0.0000000000e+00 0.0000000000e+00
-3.1857561780e+00 0.0000000000e+00 0.0000000000e+00
     1      1      3
 1  1  1     9.1157643581e+00
 1  1  2     5.1107222787e+00
 1  1  3     1.0152700065e+01
 1  2  1     3.7231821897e+00
 1  2  2     2.2374914747e+00
 1  2  3     4.6354665399e+00
 1  3  1     1.0321610507e+01
 1  3  2     6.0243558140e+00
 1  3  3     9.4755145230e+00
 2  1  1     3.7231821897e+00
 2  1  2     2.2374914747e+00
 2  1  3     4.6354665399e+00
 2  2  1     4.6407814060e+00
 2  2  2     2.8316231201e+00
 2  2  3     4.8001243539e+00
 2  3  1     6.0243558140e+00
 2  3  2     3.3652836035e+00
 2  3  3     5.4706908597e+00
 3  1  1     1.0321610507e+01
 3  1  2     6.0243558140e+00
 3  1  3     9.4755145230e+00
 3  2  1     6.0243558140e+00
 3  2  2     3.3652836035e+00
 3  2  3     5.4706908597e+00
 3  3  1     9.6658514004e+00
 3  3  2     5.5805819071e+00
 3  3  3     9.7388234093e+00

   12
0.0000000000e+00 0.0000000000e+00 0.0000000000e+00
-1.5928780890e+00 2.7589457800e+00 0.0000000000e+00
     1      1      1
 1  1  1    -1.5810017722e-02
 1  1  2    -1.2309034498e+00
 1  1  3     0.0000000000e+00
 1  2  1    -6.7093217157e-01
 1  2  2     2.9725275939e+00
 1  2  3     0.0000000000e+00
 1  3  1     0.0000000000e+00
 1  3  2     0.0000000000e+00
 1  3  3     1.5781798219e+00
 2  1  1    -6.7093217157e-01
 2  1  2     2.9725275939e+00
 2  1  3     0.0000000000e+00
 2  2  1     4.4899078719e-01
 2  2  2    -5.6013932738e+00
 2  2  3     0.0000000000e+00
 2  3  1     0.0000000000e+00
 2  3  2     0.0000000000e+00
 2  3  3    -7.7826323832e-02
 3  1  1     0.0000000000e+00
 3  1  2     0.0000000000e+00
 3  1  3     1.5781798219e+00
 3  2  1     0.0000000000e+00
 3  2  2     0.0000000000e+00
 3  2  3    -7.7826323832e-02
 3  3  1     1.8686345043e+00
 3  3  2    -1.0453202631e+00
 3  3  3     0.0000000000e+00

   13
0.0000000000e+00 0.0000000000e+00 0.0000000000e+00
-1.5928780890e+00 2.7589457800e+00 0.0000000000e+00
     1      1      2
 1  1  1     0.0000000000e+00
 1  1  2    -2.9273469045e+00
 1  1  3    -2.1238365004e+00
 1  2  1    -1.5226672652e-01
 1  2  2     0.0000000000e+00
 1  2  3     0.0000000000e+00
 1  3  1     1.1287984691e-01
 1  3  2     0.0000000000e+00
 1  3  3     0.0000000000e+00
 2  1  1    -1.5226672652e-01
 2  1  2     0.0000000000e+00
 2  1  3     0.0000000000e+00
 2  2  1     0.0000000000e+00
 2  2  2    -1.2957343891e+01
 2  2  3    -1.2828987917e+01
 2  3  1     0.0000000000e+00
 2  3  2    -1.3799773955e+01
 2  3  3    -1.0941381719e+01
 3  1  1     1.1287984691e-01
 3  1  2     0.0000000000e+00
 3  1  3     0.0000000000e+00
 3  2  1     0.0000000000e+00
 3  2  2    -1.3799773955e+01
 3  2  3    -1.0941381719e+01
 3  3  1     0.0000000000e+00
 3  3  2    -1.1161163814e+01
 3  3  3    -9.7388234093e+00

   14
0.0000000000e+00 0.0000000000e+00 0.0000000000e+00
-1.5928780890e+00 2.7589457800e+00 0.0000000000e+00
     1      1      3
 1  1  1     0.0000000000e+00
 1  1  2    -2.9273469045e+00
 1  1  3     2.1238365004e+00
 1  2  1    -1.5226672652e-01
 1  2  2     0.0000000000e+00
 1  2  3     0.0000000000e+00
 1  3  1    -1.1287984691e-01
 1  3  2     0.0000000000e+00
 1  3  3     0.0000000000e+00
 2  1  1    -1.5226672652e-01
 2  1  2     0.0000000000e+00
 2  1  3     0.0000000000e+00
 2  2  1     0.0000000000e+00
 2  2  2    -1.2957343891e+01
 2  2  3     1.2828987917e+01
 2  3  1     0.0000000000e+00
 2  3  2     1.3799773955e+01
 2  3  3    -1.0941381719e+01
 3  1  1    -1.1287984691e-01
 3  1  2     0.0000000000e+00
 3  1  3     0.0000000000e+00
 3  2  1     0.0000000000e+00
 3  2  2     1.3799773955e+01
 3  2  3    -1.0941381719e+01
 3  3  1     0.0000000000e+00
 3  3  2    -1.1161163814e+01
 3  3  3     9.7388234093e+00

   15
0.0000000000e+00 0.0000000000e+00 0.0000000000e+00
1.5928780890e+00 2.7589457800e+00 0.0000000000e+00
     1      1      1
 1  1  1     1.5810017722e-02
 1  1  2    -1.2309034498e+00
 1  1  3     0.0000000000e+00
 1  2  1    -6.7093217157e-01
 1  2  2    -2.9725275939e+00
 1  2  3     0.0000000000e+00
 1  3  1     0.0000000000e+00
 1  3  2     0.0000000000e+00
 1  3  3    -1.5781798219e+00
 2  1  1    -6.7093217157e-01
 2  1  2    -2.9725275939e+00
 2  1  3     0.0000000000e+00
 2  2  1    -4.4899078719e-01
 2  2  2    -5.6013932738e+00
 2  2  3     0.0000000000e+00
 2  3  1     0.0000000000e+00
 2  3  2     0.0000000000e+00
 2  3  3    -7.7826323832e-02
 3  1  1     0.0000000000e+00
 3  1  2     0.0000000000e+00
 3  1  3    -1.5781798219e+00
 3  2  1     0.0000000000e+00
 3  2  2     0.0000000000e+00
 3  2  3    -7.7826323832e-02
 3  3  1    -1.8686345043e+00
 3  3  2    -1.0453202631e+00
 3  3  3     0.0000000000e+00

   16
0.0000000000e+00 0.0000000000e+00 0.0000000000e+00
1.5928780890e+00 2.7589457800e+00 0.0000000000e+00
     1      1      2
 1  1  1     2.1116477396e-01
 1  1  2    -3.0308250686e-01
 1  1  3    -2.1417819986e-01
 1  2  1    -2.1075345491e-01
 1  2  2     1.2369446096e-01
 1  2  3    -5.4070373714e-02
 1  3  1    -3.5292851955e-01
 1  3  2    -4.8304308865e-02
 1  3  3     3.3773668044e-02
 2  1  1    -2.1075345491e-01
 2  1  2     1.2369446096e-01
 2  1  3    -5.4070373714e-02
 2  2  1    -3.6224148016e-02
 2  2  2     4.0408452420e-01
 2  2  3    -1.5174311016e-01
 2  3  1    -4.8304308865e-02
 2  3  2    -2.9715150800e-01
 2  3  3     1.9499236334e-02
 3  1  1    -3.5292851955e-01
 3  1  2    -4.8304308865e-02
 3  1  3     3.3773668044e-02
 3  2  1    -4.8304308865e-02
 3  2  2    -2.9715150800e-01
 3  2  3     1.9499236334e-02
 3  3  1    -8.1164403046e-02
 3  3  2    -4.6860289940e-02
 3  3  3    -2.8701872167e-02

   17
0.0000000000e+00 0.0000000000e+00 0.0000000000e+00
1.5928780890e+00 2.7589457800e+00 0.0000000000e+00
     1      1      3
 1  1  1     2.1116477396e-01
 1  1  2    -3.0308250686e-01
 1  1  3     2.1417819986e-01
 1  2  1    -2.1075345491e-01
 1  2  2     1.2369446096e-01
 1  2  3     5.4070373714e-02
 1  3  1     3.5292851955e-01
 1  3  2     4.8304308865e-02
 1  3  3     3.3773668044e-02
 2  1  1    -2.1075345491e-01
 2  1  2     1.2369446096e-01
 2  1  3     5.4070373714e-02
 2  2  1    -3.6224148016e-02
 2  2  2     4.0408452420e-01
 2  2  3     1.5174311016e-01
 2  3  1     4.8304308865e-02
 2  3  2     2.9715150800e-01
 2  3  3     1.9499236334e-02
 3  1  1     3.5292851955e-01
 3  1  2     4.8304308865e-02
 3  1  3     3.3773668044e-02
 3  2  1     4.8304308865e-02
 3  2  2     2.9715150800e-01
 3  2  3     1.9499236334e-02
 3  3  1    -8.1164403046e-02
 3  3  2    -4.6860289940e-02
 3  3  3     2.8701872167e-02

   18
0.0000000000e+00 0.0000000000e+00 0.0000000000e+00
4.7786342670e+00 2.7589457800e+00 0.0000000000e+00
     1      1      1
 1  1  1     5.5794795465e-02
 1  1  2     1.0601017827e-01
 1  1  3     0.0000000000e+00
 1  2  1    -5.1119359179e-02
 1  2  2    -7.2120515579e-02
 1  2  3     0.0000000000e+00
 1  3  1     0.0000000000e+00
 1  3  2     0.0000000000e+00
 1  3  3    -6.2317168073e-02
 2  1  1    -5.1119359179e-02
 2  1  2    -7.2120515579e-02
 2  1  3     0.0000000000e+00
 2  2  1     2.0003582661e-01
 2  2  2     4.1693700253e-02
 2  2  3     0.0000000000e+00
 2  3  1     0.0000000000e+00
 2  3  2     0.0000000000e+00
 2  3  3    -3.5978833757e-02
 3  1  1     0.0000000000e+00
 3  1  2     0.0000000000e+00
 3  1  3    -6.2317168073e-02
 3  2  1     0.0000000000e+00
 3  2  2     0.0000000000e+00
 3  2  3    -3.5978833757e-02
 3  3  1    -1.8355480123e-02
 3  3  2    -1.0597541389e-02
 3  3  3     0.0000000000e+00

   19
0.0000000000e+00 0.0000000000e+00 0.0000000000e+00
-4.7786342670e+00 2.7589457800e+00 0.0000000000e+00
     1      1      1
 1  1  1    -5.5794795465e-02
 1  1  2     1.0601017827e-01
 1  1  3     0.0000000000e+00
 1  2  1    -5.1119359179e-02
 1  2  2     7.2120515579e-02
 1  2  3     0.0000000000e+00
 1  3  1     0.0000000000e+00
 1  3  2     0.0000000000e+00
 1  3  3     6.2317168073e-02
 2  1  1    -5.1119359179e-02
 2  1  2     7.2120515579e-02
 2  1  3     0.0000000000e+00
 2  2  1    -2.0003582661e-01
 2  2  2     4.1693700253e-02
 2  2  3     0.0000000000e+00
 2  3  1     0.0000000000e+00
 2  3  2     0.0000000000e+00
 2  3  3    -3.5978833757e-02
 3  1  1     0.0000000000e+00
 3  1  2     0.0000000000e+00
 3  1  3     6.2317168073e-02
 3  2  1     0.0000000000e+00
 3  2  2     0.0000000000e+00
 3  2  3    -3.5978833757e-02
 3  3  1     1.8355480123e-02
 3  3  2    -1.0597541389e-02
 3  3  3     0.0000000000e+00

   20
0.0000000000e+00 0.0000000000e+00 0.0000000000e+00
-4.7786342670e+00 2.7589457800e+00 0.0000000000e+00
     1      1      2
 1  1  1    -2.1116477396e-01
 1  1  2    -3.0308250686e-01
 1  1  3    -2.1417819986e-01
 1  2  1    -2.1075345491e-01
 1  2  2    -1.2369446096e-01
 1  2  3     5.4070373714e-02
 1  3  1    -3.5292851955e-01
 1  3  2     4.8304308865e-02
 1  3  3    -3.3773668044e-02
 2  1  1    -2.1075345491e-01
 2  1  2    -1.2369446096e-01
 2  1  3     5.4070373714e-02
 2  2  1     3.6224148016e-02
 2  2  2     4.0408452420e-01
 2  2  3    -1.5174311016e-01
 2  3  1     4.8304308865e-02
 2  3  2    -2.9715150800e-01
 2  3  3     1.9499236334e-02
 3  1  1    -3.5292851955e-01
 3  1  2     4.8304308865e-02
 3  1  3    -3.3773668044e-02
 3  2  1     4.8304308865e-02
 3  2  2    -2.9715150800e-01
 3  2  3     1.9499236334e-02
 3  3  1     8.1164403046e-02
 3  3  2    -4.6860289940e-02
 3  3  3    -2.8701872167e-02

   21
0.0000000000e+00 0.0000000000e+00 0.0000000000e+00
-4.7786342670e+00 2.7589457800e+00 0.0000000000e+00
     1      1      3
 1  1  1    -2.1116477396e-01
 1  1  2    -3.0308250686e-01
 1  1  3     2.1417819986e-01
 1  2  1    -2.1075345491e-01
 1  2  2    -1.2369446096e-01
 1  2  3    -5.4070373714e-02
 1  3  1     3.5292851955e-01
 1  3  2    -4.8304308865e-02
 1  3  3    -3.3773668044e-02
 2  1  1    -2.1075345491e-01
 2  1  2    -1.2369446096e-01
 2  1  3    -5.4070373714e-02
 2  2  1     3.6224148016e-02
 2  2  2     4.0408452420e-01
 2  2  3     1.5174311016e-01
 2  3  1    -4.8304308865e-02
 2  3  2     2.9715150800e-01
 2  3  3     1.9499236334e-02
 3  1  1     3.5292851955e-01
 3  1  2    -4.8304308865e-02
 3  1  3    -3.3773668044e-02
 3  2  1    -4.8304308865e-02
 3  2  2     2.9715150800e-01
 3  2  3     1.9499236334e-02
 3  3  1     8.1164403046e-02
 3  3  2    -4.6860289940e-02
 3  3  3     2.8701872167e-02

   22
0.0000000000e+00 0.0000000000e+00 0.0000000000e+00
-3.1857561780e+00 5.5178915600e+00 0.0000000000e+00
     1      1      2
 1  1  1    -4.2746566016e-02
 1  1  2     3.1900994640e-02
 1  1  3     1.6021487522e-01
 1  2  1    -4.5226064430e-02
 1  2  2    -4.1446350923e-03
 1  2  3    -8.0855319978e-04
 1  3  1    -6.9411135961e-02
 1  3  2     7.8677018784e-02
 1  3  3    -1.4805948229e-01
 2  1  1    -4.5226064430e-02
 2  1  2    -4.1446350923e-03
 2  1  3    -8.0855319978e-04
 2  2  1     1.0496265749e-01
 2  2  2     3.5371143634e-02
 2  2  3     3.6330118993e-02
 2  3  1    -6.5397408640e-02
 2  3  2    -1.0483828633e-01
 2  3  3    -9.5261789729e-02
 3  1  1    -6.9411135961e-02
 3  1  2     7.8677018784e-02
 3  1  3    -1.4805948229e-01
 3  2  1    -6.5397408640e-02
 3  2  2    -1.0483828633e-01
 3  2  3    -9.5261789729e-02
 3  3  1    -1.4761020930e-01
 3  3  2     1.0787289399e-01
 3  3  3    -1.5427436781e-01

   23
0.0000000000e+00 0.0000000000e+00 0.0000000000e+00
-3.1857561780e+00 5.5178915600e+00 0.0000000000e+00
     1      1      3
 1  1  1    -4.2746566016e-02
 1  1  2     3.1900994640e-02
 1  1  3    -1.6021487522e-01
 1  2  1    -4.5226064430e-02
 1  2  2    -4.1446350923e-03
 1  2  3     8.0855319978e-04
 1  3  1     6.9411135961e-02
 1  3  2    -7.8677018784e-02
 1  3  3    -1.4805948229e-01
 2  1  1    -4.5226064430e-02
 2  1  2    -4.1446350923e-03
 2  1  3     8.0855319978e-04
 2  2  1     1.0496265749e-01
 2  2  2     3.5371143634e-02
 2  2  3    -3.6330118993e-02
 2  3  1     6.5397408640e-02
 2  3  2     1.0483828633e-01
 2  3  3    -9.5261789729e-02
 3  1  1     6.9411135961e-02
 3  1  2    -7.8677018784e-02
 3  1  3    -1.4805948229e-01
 3  2  1     6.5397408640e-02
 3  2  2     1.0483828633e-01
 3  2  3    -9.5261789729e-02
 3  3  1    -1.4761020930e-01
 3  3  2     1.0787289399e-01
 3  3  3     1.5427436781e-01

   24
0.0000000000e+00 0.0000000000e+00 0.0000000000e+00
-5.5511151231e-16 5.5178915600e+00 0.0000000000e+00
     1      1      1
 1  1  1     0.0000000000e+00
 1  1  2    -1.2104164578e-01
 1  1  3     0.0000000000e+00
 1  2  1    -1.9760482279e-01
 1  2  2     0.0000000000e+00
 1  2  3     0.0000000000e+00
 1  3  1     0.0000000000e+00
 1  3  2     0.0000000000e+00
 1  3  3     0.0000000000e+00
 2  1  1    -1.9760482279e-01
 2  1  2     0.0000000000e+00
 2  1  3     0.0000000000e+00
 2  2  1     0.0000000000e+00
 2  2  2     7.0851409574e-02
 2  2  3     0.0000000000e+00
 2  3  1     0.0000000000e+00
 2  3  2     0.0000000000e+00
 2  3  3     3.8983272091e-02
 3  1  1     0.0000000000e+00
 3  1  2     0.0000000000e+00
 3  1  3     0.0000000000e+00
 3  2  1     0.0000000000e+00
 3  2  2     0.0000000000e+00
 3  2  3     3.8983272091e-02
 3  3  1     0.0000000000e+00
 3  3  2    -9.1977020162e-02
 3  3  3     0.0000000000e+00

   25
0.0000000000e+00 0.0000000000e+00 0.0000000000e+00
0.0000000000e+00 5.5178915600e+00 0.0000000000e+00
     1      1      2
 1  1  1     4.2746566016e-02
 1  1  2     3.1900994640e-02
 1  1  3     1.6021487522e-01
 1  2  1    -4.5226064430e-02
 1  2  2     4.1446350923e-03
 1  2  3     8.0855319978e-04
 1  3  1    -6.9411135961e-02
 1  3  2    -7.8677018784e-02
 1  3  3     1.4805948229e-01
 2  1  1    -4.5226064430e-02
 2  1  2     4.1446350923e-03
 2  1  3     8.0855319978e-04
 2  2  1    -1.0496265749e-01
 2  2  2     3.5371143634e-02
 2  2  3     3.6330118993e-02
 2  3  1     6.5397408640e-02
 2  3  2    -1.0483828633e-01
 2  3  3    -9.5261789729e-02
 3  1  1    -6.9411135961e-02
 3  1  2    -7.8677018784e-02
 3  1  3     1.4805948229e-01
 3  2  1     6.5397408640e-02
 3  2  2    -1.0483828633e-01
 3  2  3    -9.5261789729e-02
 3  3  1     1.4761020930e-01
 3  3  2     1.0787289399e-01
 3  3  3    -1.5427436781e-01

   26
0.0000000000e+00 0.0000000000e+00 0.0000000000e+00
0.0000000000e+00 5.5178915600e+00 0.0000000000e+00
     1      1      3
 1  1  1     4.2746566016e-02
 1  1  2     3.1900994640e-02
 1  1  3    -1.6021487522e-01
 1  2  1    -4.5226064430e-02
 1  2  2     4.1446350923e-03
 1  2  3    -8.0855319978e-04
 1  3  1     6.9411135961e-02
 1  3  2     7.8677018784e-02
 1  3  3     1.4805948229e-01
 2  1  1    -4.5226064430e-02
 2  1  2     4.1446350923e-03
 2  1  3    -8.0855319978e-04
 2  2  1    -1.0496265749e-01
 2  2  2     3.5371143634e-02
 2  2  3    -3.6330118993e-02
 2  3  1    -6.5397408640e-02
 2  3  2     1.0483828633e-01
 2  3  3    -9.5261789729e-02
 3  1  1     6.9411135961e-02
 3  1  2     7.8677018784e-02
 3  1  3     1.4805948229e-01
 3  2  1    -6.5397408640e-02
 3  2  2     1.0483828633e-01
 3  2  3    -9.5261789729e-02
 3  3  1     1.4761020930e-01
 3  3  2     1.0787289399e-01
 3  3  3     1.5427436781e-01

   27
0.0000000000e+00 0.0000000000e+00 0.0000000000e+00
0.0000000000e+00 -5.5178915600e+00 0.0000000000e+00
     1      1      1
 1  1  1     0.0000000000e+00
 1  1  2    -2.4046203680e-01
 1  1  3     0.0000000000e+00
 1  2  1     7.3797038091e-02
 1  2  2     0.0000000000e+00
 1  2  3     0.0000000000e+00
 1  3  1     0.0000000000e+00
 1  3  2     0.0000000000e+00
 1  3  3     0.0000000000e+00
 2  1  1     7.3797038091e-02
 2  1  2     0.0000000000e+00
 2  1  3     0.0000000000e+00
 2  2  1     0.0000000000e+00
 2  2  2    -5.4945720247e-02
 2  2  3     0.0000000000e+00
 2  3  1     0.0000000000e+00
 2  3  2     0.0000000000e+00
 2  3  3     7.1957667513e-02
 3  1  1     0.0000000000e+00
 3  1  2     0.0000000000e+00
 3  1  3     0.0000000000e+00
 3  2  1     0.0000000000e+00
 3  2  2     0.0000000000e+00
 3  2  3     7.1957667513e-02
 3  3  1     0.0000000000e+00
 3  3  2     2.1195082777e-02
 3  3  3     0.0000000000e+00

   28
0.0000000000e+00 0.0000000000e+00 0.0000000000e+00
1.5928780890e+00 -2.7589457800e+00 0.0000000000e+00
     1      1      1
 1  1  1    -1.7994412330e+00
 1  1  2     7.5224917740e-01
 1  1  3     0.0000000000e+00
 1  2  1     2.6577105206e+00
 1  2  2    -2.1541931565e+00
 1  2  3     0.0000000000e+00
 1  3  1     0.0000000000e+00
 1  3  2     0.0000000000e+00
 1  3  3     7.2169033741e-01
 2  1  1     2.6577105206e+00
 2  1  2    -2.1541931565e+00
 2  1  3     0.0000000000e+00
 2  2  1    -3.9009109122e+00
 2  2  2     3.0390447352e+00
 2  2  3     0.0000000000e+00
 2  3  1     0.0000000000e+00
 2  3  2     0.0000000000e+00
 2  3  3     1.4056569792e+00
 3  1  1     0.0000000000e+00
 3  1  2     0.0000000000e+00
 3  1  3     7.2169033741e-01
 3  2  1     0.0000000000e+00
 3  2  2     0.0000000000e+00
 3  2  3     1.4056569792e+00
 3  3  1     2.9043349074e-02
 3  3  2     2.1409450825e+00
 3  3  3     0.0000000000e+00

   29
0.0000000000e+00 0.0000000000e+00 0.0000000000e+00
1.5928780890e+00 -2.7589457800e+00 0.0000000000e+00
     1      1      2
 1  1  1     4.1206738805e-02
 1  1  2     9.5436709872e-03
 1  1  3     6.6601080447e-02
 1  2  1    -4.6382486610e-02
 1  2  2    -7.3186951093e-02
 1  2  3     5.3239396405e-02
 1  3  1    -9.0231258889e-02
 1  3  2    -5.3376905064e-02
 1  3  3    -1.5652887107e-01
 2  1  1    -4.6382486610e-02
 2  1  2    -7.3186951093e-02
 2  1  3     5.3239396405e-02
 2  2  1     4.8160687665e-02
 2  2  2     1.0700975630e-02
 2  2  3     1.2994391374e-01
 2  3  1     9.0697522359e-02
 2  3  2    -8.4018163404e-02
 2  3  3    -8.0592378050e-02
 3  1  1    -9.0231258889e-02
 3  1  2    -5.3376905064e-02
 3  1  3    -1.5652887107e-01
 3  2  1     9.0697522359e-02
 3  2  2    -8.4018163404e-02
 3  2  3    -8.0592378050e-02
 3  3  1     1.9615561938e-02
 3  3  2    -1.8177063809e-01
 3  3  3    -1.5427436781e-01

   30
0.0000000000e+00 0.0000000000e+00 0.0000000000e+00
1.5928780890e+00 -2.7589457800e+00 0.0000000000e+00
     1      1      3
 1  1  1     4.1206738805e-02
 1  1  2     9.5436709872e-03
 1  1  3    -6.6601080447e-02
 1  2  1    -4.6382486610e-02
 1  2  2    -7.3186951093e-02
 1  2  3    -5.3239396405e-02
 1  3  1     9.0231258889e-02
 1  3  2     5.3376905064e-02
 1  3  3    -1.5652887107e-01
 2  1  1    -4.6382486610e-02
 2  1  2    -7.3186951093e-02
 2  1  3    -5.3239396405e-02
 2  2  1     4.8160687665e-02
 2  2  2     1.0700975630e-02
 2  2  3    -1.2994391374e-01
 2  3  1    -9.0697522359e-02
 2  3  2     8.4018163404e-02
 2  3  3    -8.0592378050e-02
 3  1  1     9.0231258889e-02
 3  1  2     5.3376905064e-02
 3  1  3    -1.5652887107e-01
 3  2  1    -9.0697522359e-02
 3  2  2     8.4018163404e-02
 3  2  3    -8.0592378050e-02
 3  3  1     1.9615561938e-02
 3  3  2    -1.8177063809e-01
 3  3  3     1.5427436781e-01

   31
0.0000000000e+00 0.0000000000e+00 0.0000000000e+00
4.7786342670e+00 -2.7589457800e+00 0.0000000000e+00
     1      1      1
 1  1  1    -6.5752342818e-02
 1  1  2    -1.5964268997e-01
 1  1  3     0.0000000000e+00
 1  2  1    -1.2136110146e-01
 1  2  2    -4.4019333025e-02
 1  2  3     0.0000000000e+00
 1  3  1     0.0000000000e+00
 1  3  2     0.0000000000e+00
 1  3  3     3.3760503958e-02
 2  1  1    -1.2136110146e-01
 2  1  2    -4.4019333025e-02
 2  1  3     0.0000000000e+00
 2  2  1     2.2286323251e-02
 2  2  2     1.8473780800e-01
 2  2  3     0.0000000000e+00
 2  3  1     0.0000000000e+00
 2  3  2     0.0000000000e+00
 2  3  3    -1.9491636045e-02
 3  1  1     0.0000000000e+00
 3  1  2     0.0000000000e+00
 3  1  3     3.3760503958e-02
 3  2  1     0.0000000000e+00
 3  2  2     0.0000000000e+00
 3  2  3    -1.9491636045e-02
 3  3  1    -7.9654436037e-02
 3  3  2     4.5988510081e-02
 3  3  3     0.0000000000e+00

   32
0.0000000000e+00 0.0000000000e+00 0.0000000000e+00
-4.7786342670e+00 -2.7589457800e+00 0.0000000000e+00
     1      1      1
 1  1  1     6.5752342818e-02
 1  1  2    -1.5964268997e-01
 1  1  3     0.0000000000e+00
 1  2  1    -1.2136110146e-01
 1  2  2     4.4019333025e-02
 1  2  3     0.0000000000e+00
 1  3  1     0.0000000000e+00
 1  3  2     0.0000000000e+00
 1  3  3    -3.3760503958e-02
 2  1  1    -1.2136110146e-01
 2  1  2     4.4019333025e-02
 2  1  3     0.0000000000e+00
 2  2  1    -2.2286323251e-02
 2  2  2     1.8473780800e-01
 2  2  3     0.0000000000e+00
 2  3  1     0.0000000000e+00
 2  3  2     0.0000000000e+00
 2  3  3    -1.9491636045e-02
 3  1  1     0.0000000000e+00
 3  1  2     0.0000000000e+00
 3  1  3    -3.3760503958e-02
 3  2  1     0.0000000000e+00
 3  2  2     0.0000000000e+00