   0.31593E+01   0.23619E-02   0.30848E-02
   0.63186E+01   0.36890E-02   0.49056E-02
   0.94779E+01   0.42593E-02   0.58027E-02
   0.12637E+02   0.45094E-02   0.63090E-02
   0.15796E+02   0.45122E-02   0.65100E-02
   0.18956E+02   0.48888E-02   0.72890E-02
   0.22115E+02   0.52120E-02   0.80256E-02
   0.25274E+02   0.47608E-02   0.76224E-02
   0.28434E+02   0.52280E-02   0.87354E-02
   0.31593E+02   0.52580E-02   0.91667E-02
   0.34752E+02   0.55617E-02   0.10107E-01
   0.37912E+02   0.53971E-02   0.10540E-01
   0.41071E+02   0.56176E-02   0.11620E-01
   0.44230E+02   0.58616E-02   0.12978E-01
   0.47389E+02   0.59237E-02   0.14170E-01
   0.50549E+02   0.59664E-02   0.16482E-01
   0.53708E+02   0.60231E-02   0.19046E-01
   0.56867E+02   0.63816E-02   0.23957E-01
   0.60027E+02   0.68905E-02   0.35451E-01
   0.63186E+02   0.44709E-02   0.47320E-01
   0.66345E+02   0.27237E-02   0.34715E-02
   0.69504E+02   0.31493E-02   0.40039E-02
   0.72664E+02   0.36236E-02   0.45967E-02
   0.75823E+02   0.37300E-02   0.47196E-02
   0.78982E+02   0.37773E-02   0.47723E-02
   0.82142E+02   0.39845E-02   0.50175E-02
   0.85301E+02   0.46680E-02   0.58614E-02
   0.88460E+02   0.50795E-02   0.63509E-02
   0.91620E+02   0.55071E-02   0.68740E-02
   0.94779E+02   0.61767E-02   0.76597E-02
   0.97938E+02   0.71823E-02   0.88765E-02
   0.10110E+03   0.83842E-02   0.10281E-01
   0.10426E+03   0.12015E-01   0.14588E-01
   0.10742E+03   0.83973E-02   0.10279E-01
   0.11058E+03   0.75688E-02   0.93007E-02
   0.11373E+03   0.68190E-02   0.84268E-02
   0.11689E+03   0.29215E-01   0.91412E-02
   0.12005E+03   0.37242E-01   0.11048E-01
   0.12321E+03   0.37951E-01   0.12841E-01
   0.12637E+03   0.27631E-01   0.12305E-01
   0.12953E+03   0.23039E-01   0.12319E-01
   0.13269E+03   0.20501E-01   0.12342E-01
   0.13585E+03   0.19738E-01   0.13091E-01
   0.13901E+03   0.19764E-01   0.14028E-01
   0.14217E+03   0.17147E-01   0.13201E-01
   0.14533E+03   0.16506E-01   0.13316E-01
   0.14849E+03   0.15713E-01   0.13492E-01
   0.15165E+03   0.14584E-01   0.13329E-01
   0.15481E+03   0.13747E-01   0.13137E-01
   0.15796E+03   0.43895E-02   0.60749E-02
   0.16112E+03   0.41786E-02   0.59301E-02
   0.16428E+03   0.43465E-02   0.62361E-02
   0.16744E+03   0.28158E-02   0.47688E-02
   0.17060E+03   0.28906E-02   0.50277E-02
   0.17376E+03   0.30010E-02   0.53859E-02
   0.17692E+03   0.30501E-02   0.56818E-02
   0.18008E+03   0.31552E-02   0.61601E-02
   0.18324E+03   0.33217E-02   0.68887E-02
   0.18640E+03   0.34865E-02   0.78021E-02
   0.18956E+03   0.34885E-02   0.86645E-02
   0.19272E+03   0.35774E-02   0.10494E-01
   0.19588E+03   0.36754E-02   0.16044E-01
   0.19904E+03   0.30694E-02   0.14634E-01
   0.20219E+03   0.22039E-02   0.11084E-01
   0.20535E+03   0.17199E-02   0.10584E-01
   0.20851E+03   0.11300E-02   0.97792E-02
   0.21167E+03   0.53010E-03   0.85378E-02
   0.21483E+03   0.13836E-06   0.42481E-05
   0.21799E+03   0.00000E+00   0.00000E+00
   0.22115E+03   0.65681E-02   0.28798E-03
   0.22431E+03   0.79324E-02   0.73730E-03
   0.22747E+03   0.81252E-02   0.10597E-02
   0.23063E+03   0.11475E-01   0.24814E-02
   0.23379E+03   0.59698E-01   0.45407E-01
   0.23695E+03   0.34869E-01   0.22242E-01
   0.24011E+03   0.45189E-01   0.19276E-01
   0.24327E+03   0.24438E-01   0.13478E-01
   0.24642E+03   0.19506E-01   0.11072E-01
   0.24958E+03   0.19604E-01   0.11925E-01
   0.25274E+03   0.99663E-02   0.49334E-02
   0.25590E+03   0.10341E-01   0.55849E-02
   0.25906E+03   0.10442E-01   0.59635E-02
   0.26222E+03   0.11088E-01   0.66875E-02
   0.26538E+03   0.11506E-01   0.73068E-02
   0.26854E+03   0.12353E-01   0.82534E-02
   0.27170E+03   0.11541E-01   0.79933E-02
   0.27486E+03   0.95500E-02   0.67936E-02
   0.27802E+03   0.73964E-02   0.53784E-02
   0.28118E+03   0.82295E-02   0.60858E-02
   0.28434E+03   0.13954E-01   0.10480E-01
   0.28750E+03   0.10314E-03   0.77512E-04
   0.29065E+03   0.00000E+00   0.00000E+00
   0.29381E+03   0.00000E+00   0.00000E+00
   0.29697E+03   0.00000E+00   0.00000E+00
   0.30013E+03   0.00000E+00   0.00000E+00
   0.30329E+03   0.00000E+00   0.00000E+00
   0.30645E+03   0.00000E+00   0.00000E+00
   0.30961E+03   0.00000E+00   0.00000E+00
   0.31277E+03   0.00000E+00   0.00000E+00
   0.31593E+03   0.00000E+00   0.00000E+00
