 1989

    1
0.0000000000e+00 0.0000000000e+00 0.0000000000e+00
0.0000000000e+00 0.0000000000e+00 0.0000000000e+00
     1      1      1
 1  1  1     0.0000000000e+00
 1  1  2     0.0000000000e+00
 1  1  3     0.0000000000e+00
 1  2  1     0.0000000000e+00
 1  2  2     0.0000000000e+00
 1  2  3     0.0000000000e+00
 1  3  1     0.0000000000e+00
 1  3  2     0.0000000000e+00
 1  3  3     0.0000000000e+00
 2  1  1     0.0000000000e+00
 2  1  2     0.0000000000e+00
 2  1  3     0.0000000000e+00
 2  2  1     0.0000000000e+00
 2  2  2     0.0000000000e+00
 2  2  3     0.0000000000e+00
 2  3  1     0.0000000000e+00
 2  3  2     0.0000000000e+00
 2  3  3     0.0000000000e+00
 3  1  1     0.0000000000e+00
 3  1  2     0.0000000000e+00
 3  1  3     0.0000000000e+00
 3  2  1     0.0000000000e+00
 3  2  2     0.0000000000e+00
 3  2  3     0.0000000000e+00
 3  3  1     0.0000000000e+00
 3  3  2     0.0000000000e+00
 3  3  3     0.0000000000e+00

    2
0.0000000000e+00 0.0000000000e+00 0.0000000000e+00
0.0000000000e+00 0.0000000000e+00 0.0000000000e+00
     1      1      2
 1  1  1    -3.5643861573e+00
 1  1  2     6.4143024547e-01
 1  1  3    -1.0984567636e+01
 1  2  1    -4.1006666679e-01
 1  2  2    -5.8104669416e-01
 1  2  3     5.0255844975e+00
 1  3  1    -1.1210465415e+01
 1  3  2     6.6113546428e+00
 1  3  3    -1.0364126634e+01
 2  1  1    -4.1006666679e-01
 2  1  2    -5.8104669416e-01
 2  1  3     5.0255844975e+00
 2  2  1    -2.4022927708e+00
 2  2  2     2.8034334400e+00
 2  2  3    -5.1815225110e+00
 2  3  1     6.6113546428e+00
 2  3  2    -3.5763306489e+00
 2  3  3     5.9837313015e+00
 3  1  1    -1.1210465415e+01
 3  1  2     6.6113546428e+00
 3  1  3    -1.0364126634e+01
 3  2  1     6.6113546428e+00
 3  2  2    -3.5763306489e+00
 3  2  3     5.9837313015e+00
 3  3  1    -1.0738091214e+01
 3  3  2     6.1996398526e+00
 3  3  3    -1.0697212884e+01

    3
0.0000000000e+00 0.0000000000e+00 0.0000000000e+00
0.0000000000e+00 0.0000000000e+00 0.0000000000e+00
     1      1      3
 1  1  1    -3.5643861573e+00
 1  1  2     6.4143024547e-01
 1  1  3     1.0984567636e+01
 1  2  1    -4.1006666679e-01
 1  2  2    -5.8104669416e-01
 1  2  3    -5.0255844975e+00
 1  3  1     1.1210465415e+01
 1  3  2    -6.6113546428e+00
 1  3  3    -1.0364126634e+01
 2  1  1    -4.1006666679e-01
 2  1  2    -5.8104669416e-01
 2  1  3    -5.0255844975e+00
 2  2  1    -2.4022927708e+00
 2  2  2     2.8034334400e+00
 2  2  3     5.1815225110e+00
 2  3  1    -6.6113546428e+00
 2  3  2     3.5763306489e+00
 2  3  3     5.9837313015e+00
 3  1  1     1.1210465415e+01
 3  1  2    -6.6113546428e+00
 3  1  3    -1.0364126634e+01
 3  2  1    -6.6113546428e+00
 3  2  2     3.5763306489e+00
 3  2  3     5.9837313015e+00
 3  3  1    -1.0738091214e+01
 3  3  2     6.1996398526e+00
 3  3  3     1.0697212884e+01

    4
0.0000000000e+00 0.0000000000e+00 0.0000000000e+00
3.1417264690e+00 0.0000000000e+00 0.0000000000e+00
     1      1      1
 1  1  1    -7.6586738407e+00
 1  1  2     4.1447374917e+00
 1  1  3     0.0000000000e+00
 1  2  1     3.3521160473e-01
 1  2  2    -2.9544477926e-01
 1  2  3     0.0000000000e+00
 1  3  1     0.0000000000e+00
 1  3  2     0.0000000000e+00
 1  3  3    -8.9328936920e-01
 2  1  1     3.3521160473e-01
 2  1  2    -2.9544477926e-01
 2  1  3     0.0000000000e+00
 2  2  1     6.1033286110e-01
 2  2  2     2.3375630299e-01
 2  2  3     0.0000000000e+00
 2  3  1     0.0000000000e+00
 2  3  2     0.0000000000e+00
 2  3  3    -1.3647271190e+00
 3  1  1     0.0000000000e+00
 3  1  2     0.0000000000e+00
 3  1  3    -8.9328936920e-01
 3  2  1     0.0000000000e+00
 3  2  2     0.0000000000e+00
 3  2  3    -1.3647271190e+00
 3  3  1    -1.7860997373e+00
 3  3  2    -1.1595249659e+00
 3  3  3     0.0000000000e+00

    5
0.0000000000e+00 0.0000000000e+00 0.0000000000e+00
3.1417264690e+00 0.0000000000e+00 0.0000000000e+00
     1      1      2
 1  1  1     4.4969711919e-03
 1  1  2    -1.1678185354e-01
 1  1  3     8.1799114746e-02
 1  2  1     2.4006024484e-02
 1  2  2     3.3998118699e-02
 1  2  3     5.4035121705e-02
 1  3  1    -1.0816023496e-01
 1  3  2     9.0790924848e-02
 1  3  3    -1.7049619738e-02
 2  1  1     2.4006024484e-02
 2  1  2     3.3998118699e-02
 2  1  3     5.4035121705e-02
 2  2  1     6.9316417864e-02
 2  2  2     3.3690662577e-02
 2  2  3     1.1269004010e-01
 2  3  1    -8.4339480060e-02
 2  3  2    -7.4113796107e-02
 2  3  3     1.8922820626e-01
 3  1  1    -1.0816023496e-01
 3  1  2     9.0790924848e-02
 3  1  3    -1.7049619738e-02
 3  2  1    -8.4339480060e-02
 3  2  2    -7.4113796107e-02
 3  2  3     1.8922820626e-01
 3  3  1     1.9968721375e-01
 3  3  2     7.3935678492e-02
 3  3  3    -1.6776999692e-01

    6
0.0000000000e+00 0.0000000000e+00 0.0000000000e+00
3.1417264690e+00 0.0000000000e+00 0.0000000000e+00
     1      1      3
 1  1  1     4.4969711919e-03
 1  1  2    -1.1678185354e-01
 1  1  3    -8.1799114746e-02
 1  2  1     2.4006024484e-02
 1  2  2     3.3998118699e-02
 1  2  3    -5.4035121705e-02
 1  3  1     1.0816023496e-01
 1  3  2    -9.0790924848e-02
 1  3  3    -1.7049619738e-02
 2  1  1     2.4006024484e-02
 2  1  2     3.3998118699e-02
 2  1  3    -5.4035121705e-02
 2  2  1     6.9316417864e-02
 2  2  2     3.3690662577e-02
 2  2  3    -1.1269004010e-01
 2  3  1     8.4339480060e-02
 2  3  2     7.4113796107e-02
 2  3  3     1.8922820626e-01
 3  1  1     1.0816023496e-01
 3  1  2    -9.0790924848e-02
 3  1  3    -1.7049619738e-02
 3  2  1     8.4339480060e-02
 3  2  2     7.4113796107e-02
 3  2  3     1.8922820626e-01
 3  3  1     1.9968721375e-01
 3  3  2     7.3935678492e-02
 3  3  3     1.6776999692e-01

    7
0.0000000000e+00 0.0000000000e+00 0.0000000000e+00
-6.2834529380e+00 0.0000000000e+00 0.0000000000e+00
     1      1      2
 1  1  1    -4.4969711666e-03
 1  1  2    -1.1678185351e-01
 1  1  3     8.1799114786e-02
 1  2  1     2.4006024522e-02
 1  2  2    -3.3998118712e-02
 1  2  3    -5.4035121746e-02
 1  3  1    -1.0816023496e-01
 1  3  2    -9.0790924821e-02
 1  3  3     1.7049619668e-02
 2  1  1     2.4006024522e-02
 2  1  2    -3.3998118712e-02
 2  1  3    -5.4035121746e-02
 2  2  1    -6.9316417876e-02
 2  2  2     3.3690662577e-02
 2  2  3     1.1269004010e-01
 2  3  1     8.4339480087e-02
 2  3  2    -7.4113796107e-02
 2  3  3     1.8922820626e-01
 3  1  1    -1.0816023496e-01
 3  1  2    -9.0790924821e-02
 3  1  3     1.7049619668e-02
 3  2  1     8.4339480087e-02
 3  2  2    -7.4113796107e-02
 3  2  3     1.8922820626e-01
 3  3  1    -1.9968721378e-01
 3  3  2     7.3935678492e-02
 3  3  3    -1.6776999692e-01

    8
0.0000000000e+00 0.0000000000e+00 0.0000000000e+00
-6.2834529380e+00 0.0000000000e+00 0.0000000000e+00
     1      1      3
 1  1  1    -4.4969711666e-03
 1  1  2    -1.1678185351e-01
 1  1  3    -8.1799114786e-02
 1  2  1     2.4006024522e-02
 1  2  2    -3.3998118712e-02
 1  2  3     5.4035121746e-02
 1  3  1     1.0816023496e-01
 1  3  2     9.0790924821e-02
 1  3  3     1.7049619668e-02
 2  1  1     2.4006024522e-02
 2  1  2    -3.3998118712e-02
 2  1  3     5.4035121746e-02
 2  2  1    -6.9316417876e-02
 2  2  2     3.3690662577e-02
 2  2  3    -1.1269004010e-01
 2  3  1    -8.4339480087e-02
 2  3  2     7.4113796107e-02
 2  3  3     1.8922820626e-01
 3  1  1     1.0816023496e-01
 3  1  2     9.0790924821e-02
 3  1  3     1.7049619668e-02
 3  2  1    -8.4339480087e-02
 3  2  2     7.4113796107e-02
 3  2  3     1.8922820626e-01
 3  3  1    -1.9968721378e-01
 3  3  2     7.3935678492e-02
 3  3  3     1.6776999692e-01

    9
0.0000000000e+00 0.0000000000e+00 0.0000000000e+00
-3.1417264690e+00 0.0000000000e+00 0.0000000000e+00
     1      1      1
 1  1  1     7.6586738389e+00
 1  1  2     4.1447374915e+00
 1  1  3     0.0000000000e+00
 1  2  1     3.3521160485e-01
 1  2  2     2.9544477917e-01
 1  2  3     0.0000000000e+00
 1  3  1     0.0000000000e+00
 1  3  2     0.0000000000e+00
 1  3  3     8.9328936970e-01
 2  1  1     3.3521160485e-01
 2  1  2     2.9544477917e-01
 2  1  3     0.0000000000e+00
 2  2  1    -6.1033286118e-01
 2  2  2     2.3375630299e-01
 2  2  3     0.0000000000e+00
 2  3  1     0.0000000000e+00
 2  3  2     0.0000000000e+00
 2  3  3    -1.3647271190e+00
 3  1  1     0.0000000000e+00
 3  1  2     0.0000000000e+00
 3  1  3     8.9328936970e-01
 3  2  1     0.0000000000e+00
 3  2  2     0.0000000000e+00
 3  2  3    -1.3647271190e+00
 3  3  1     1.7860997377e+00
 3  3  2    -1.1595249659e+00
 3  3  3     0.0000000000e+00

   10
0.0000000000e+00 0.0000000000e+00 0.0000000000e+00
-3.1417264690e+00 0.0000000000e+00 0.0000000000e+00
     1      1      2
 1  1  1     3.5643861574e+00
 1  1  2     6.4143024505e-01
 1  1  3    -1.0984567632e+01
 1  2  1    -4.1006666789e-01
 1  2  2     5.8104669313e-01
 1  2  3    -5.0255844956e+00
 1  3  1    -1.1210465411e+01
 1  3  2    -6.6113546414e+00
 1  3  3     1.0364126632e+01
 2  1  1    -4.1006666789e-01
 2  1  2     5.8104669313e-01
 2  1  3    -5.0255844956e+00
 2  2  1     2.4022927698e+00
 2  2  2     2.8034334400e+00
 2  2  3    -5.1815225110e+00
 2  3  1    -6.6113546414e+00
 2  3  2    -3.5763306489e+00
 2  3  3     5.9837313015e+00
 3  1  1    -1.1210465411e+01
 3  1  2    -6.6113546414e+00
 3  1  3     1.0364126632e+01
 3  2  1    -6.6113546414e+00
 3  2  2    -3.5763306489e+00
 3  2  3     5.9837313015e+00
 3  3  1     1.0738091212e+01
 3  3  2     6.1996398526e+00
 3  3  3    -1.0697212884e+01

   11
0.0000000000e+00 0.0000000000e+00 0.0000000000e+00
-3.1417264690e+00 0.0000000000e+00 0.0000000000e+00
     1      1      3
 1  1  1     3.5643861574e+00
 1  1  2     6.4143024505e-01
 1  1  3     1.0984567632e+01
 1  2  1    -4.1006666789e-01
 1  2  2     5.8104669313e-01
 1  2  3     5.0255844956e+00
 1  3  1     1.1210465411e+01
 1  3  2     6.6113546414e+00
 1  3  3     1.0364126632e+01
 2  1  1    -4.1006666789e-01
 2  1  2     5.8104669313e-01
 2  1  3     5.0255844956e+00
 2  2  1     2.4022927698e+00
 2  2  2     2.8034334400e+00
 2  2  3     5.1815225110e+00
 2  3  1     6.6113546414e+00
 2  3  2     3.5763306489e+00
 2  3  3     5.9837313015e+00
 3  1  1     1.1210465411e+01
 3  1  2     6.6113546414e+00
 3  1  3     1.0364126632e+01
 3  2  1     6.6113546414e+00
 3  2  2     3.5763306489e+00
 3  2  3     5.9837313015e+00
 3  3  1     1.0738091212e+01
 3  3  2     6.1996398526e+00
 3  3  3     1.0697212884e+01

   12
0.0000000000e+00 0.0000000000e+00 0.0000000000e+00
-1.5708632350e+00 2.7208149340e+00 0.0000000000e+00
     1      1      1
 1  1  1    -2.4429905322e-01
 1  1  2    -1.4881394601e+00
 1  1  3     0.0000000000e+00
 1  2  1    -3.6780296269e-01
 1  2  2     3.7286177026e+00
 1  2  3     0.0000000000e+00
 1  3  1     0.0000000000e+00
 1  3  2     0.0000000000e+00
 1  3  3     1.6285330390e+00
 2  1  1    -3.6780296269e-01
 2  1  2     3.7286177026e+00
 2  1  3     0.0000000000e+00
 2  2  1    -2.3417312022e-02
 2  2  2    -6.8051497814e+00
 2  2  3     0.0000000000e+00
 2  3  1     0.0000000000e+00
 2  3  2     0.0000000000e+00
 2  3  3    -9.1247727393e-02
 3  1  1     0.0000000000e+00
 3  1  2     0.0000000000e+00
 3  1  3     1.6285330390e+00
 3  2  1     0.0000000000e+00
 3  2  2     0.0000000000e+00
 3  2  3    -9.1247727393e-02
 3  3  1     1.8972279456e+00
 3  3  2    -9.6704526347e-01
 3  3  3     0.0000000000e+00

   13
0.0000000000e+00 0.0000000000e+00 0.0000000000e+00
-1.5708632350e+00 2.7208149340e+00 0.0000000000e+00
     1      1      2
 1  1  1     1.1673718568e-09
 1  1  2    -3.5194628874e+00
 1  1  3    -2.2799999488e+00
 1  2  1    -1.4164690623e+00
 1  2  2     6.1935002337e-10
 1  2  3     2.5518254459e-09
 1  3  1     2.4073673354e-01
 1  3  2     2.7615877285e-09
 1  3  3     2.1992426564e-09
 2  1  1    -1.4164690623e+00
 2  1  2     6.1934986726e-10
 2  1  3     2.5518246089e-09
 2  2  1     6.1934901877e-10
 2  2  2    -3.3702644830e+00
 2  2  3    -1.3886090197e+01
 2  3  1     2.7615869945e-09
 2  3  2    -1.5027532796e+01
 2  3  3    -1.1967462603e+01
 3  1  1     2.4073673354e-01
 3  1  2     2.7615868341e-09
 3  1  3     2.1992426564e-09
 3  2  1     2.7615857331e-09
 3  2  2    -1.5027532796e+01
 3  2  3    -1.1967462603e+01
 3  3  1     2.2785970377e-09
 3  3  2    -1.2399279705e+01
 3  3  3    -1.0697212884e+01

   14
0.0000000000e+00 0.0000000000e+00 0.0000000000e+00
-1.5708632350e+00 2.7208149340e+00 0.0000000000e+00
     1      1      3
 1  1  1     1.1673718568e-09
 1  1  2    -3.5194628874e+00
 1  1  3     2.2799999488e+00
 1  2  1    -1.4164690623e+00
 1  2  2     6.1935002337e-10
 1  2  3    -2.5518254459e-09
 1  3  1    -2.4073673354e-01
 1  3  2    -2.7615877285e-09
 1  3  3     2.1992426564e-09
 2  1  1    -1.4164690623e+00
 2  1  2     6.1934986726e-10
 2  1  3    -2.5518246089e-09
 2  2  1     6.1934901877e-10
 2  2  2    -3.3702644830e+00
 2  2  3     1.3886090197e+01
 2  3  1    -2.7615869945e-09
 2  3  2     1.5027532796e+01
 2  3  3    -1.1967462603e+01
 3  1  1    -2.4073673354e-01
 3  1  2    -2.7615868341e-09
 3  1  3     2.1992426564e-09
 3  2  1    -2.7615857331e-09
 3  2  2     1.5027532796e+01
 3  2  3    -1.1967462603e+01
 3  3  1     2.2785970377e-09
 3  3  2    -1.2399279705e+01
 3  3  3     1.0697212884e+01

   15
0.0000000000e+00 0.0000000000e+00 0.0000000000e+00
1.5708632340e+00 2.7208149340e+00 0.0000000000e+00
     1      1      1
 1  1  1     2.4429905403e-01
 1  1  2    -1.4881394573e+00
 1  1  3     0.0000000000e+00
 1  2  1    -3.6780296133e-01
 1  2  2    -3.7286177001e+00
 1  2  3     0.0000000000e+00
 1  3  1     0.0000000000e+00
 1  3  2     0.0000000000e+00
 1  3  3    -1.6285330390e+00
 2  1  1    -3.6780296133e-01
 2  1  2    -3.7286177001e+00
 2  1  3     0.0000000000e+00
 2  2  1     2.3417314523e-02
 2  2  2    -6.8051497814e+00
 2  2  3     0.0000000000e+00
 2  3  1     0.0000000000e+00
 2  3  2     0.0000000000e+00
 2  3  3    -9.1247727393e-02
 3  1  1     0.0000000000e+00
 3  1  2     0.0000000000e+00
 3  1  3    -1.6285330390e+00
 3  2  1     0.0000000000e+00
 3  2  2     0.0000000000e+00
 3  2  3    -9.1247727393e-02
 3  3  1    -1.8972279453e+00
 3  3  2    -9.6704526347e-01
 3  3  3     0.0000000000e+00

   16
0.0000000000e+00 0.0000000000e+00 0.0000000000e+00
1.5708632340e+00 2.7208149340e+00 0.0000000000e+00
     1      1      2
 1  1  1     2.4252562636e-01
 1  1  2    -2.7635533935e-01
 1  1  3    -2.3621550012e-01
 1  2  1    -1.9035345443e-01
 1  2  2     1.3049508674e-01
 1  2  3    -5.9973831435e-02
 1  3  1    -3.6696978745e-01
 1  3  2    -6.8991054278e-02
 1  3  3     4.6367855345e-02
 2  1  1    -1.9035345443e-01
 2  1  2     1.3049508674e-01
 2  1  3    -5.9973831435e-02
 2  2  1    -1.8464547442e-02
 2  2  2     4.0571706354e-01
 2  2  3    -1.6696368468e-01
 2  3  1    -6.8991054278e-02
 2  3  2    -2.8730577993e-01
 2  3  3     2.6770493769e-02
 3  1  1    -3.6696978745e-01
 3  1  2    -6.8991054278e-02
 3  1  3     4.6367855345e-02
 3  2  1    -6.8991054278e-02
 3  2  2    -2.8730577993e-01
 3  2  3     2.6770493769e-02
 3  3  1    -1.0405438703e-01
 3  3  2    -6.0075828369e-02
 3  3  3    -4.0316219359e-02

   17
0.0000000000e+00 0.0000000000e+00 0.0000000000e+00
1.5708632340e+00 2.7208149340e+00 0.0000000000e+00
     1      1      3
 1  1  1     2.4252562636e-01
 1  1  2    -2.7635533935e-01
 1  1  3     2.3621550012e-01
 1  2  1    -1.9035345443e-01
 1  2  2     1.3049508674e-01
 1  2  3     5.9973831435e-02
 1  3  1     3.6696978745e-01
 1  3  2     6.8991054278e-02
 1  3  3     4.6367855345e-02
 2  1  1    -1.9035345443e-01
 2  1  2     1.3049508674e-01
 2  1  3     5.9973831435e-02
 2  2  1    -1.8464547442e-02
 2  2  2     4.0571706354e-01
 2  2  3     1.6696368468e-01
 2  3  1     6.8991054278e-02
 2  3  2     2.8730577993e-01
 2  3  3     2.6770493769e-02
 3  1  1     3.6696978745e-01
 3  1  2     6.8991054278e-02
 3  1  3     4.6367855345e-02
 3  2  1     6.8991054278e-02
 3  2  2     2.8730577993e-01
 3  2  3     2.6770493769e-02
 3  3  1    -1.0405438703e-01
 3  3  2    -6.0075828369e-02
 3  3  3     4.0316219359e-02

   18
0.0000000000e+00 0.0000000000e+00 0.0000000000e+00
4.7125897030e+00 2.7208149340e+00 0.0000000000e+00
     1      1      1
 1  1  1     8.9626315638e-02
 1  1  2     1.2022539396e-01
 1  1  3     0.0000000000e+00
 1  2  1    -5.0272098982e-02
 1  2  2    -6.8561334879e-02
 1  2  3     0.0000000000e+00
 1  3  1     0.0000000000e+00
 1  3  2     0.0000000000e+00
 1  3  3    -6.1131141626e-02
 2  1  1    -5.0272098982e-02
 2  1  2    -6.8561334879e-02
 2  1  3     0.0000000000e+00
 2  2  1     2.2674898537e-01
 2  2  2     6.2433971281e-02
 2  2  3     0.0000000000e+00
 2  3  1     0.0000000000e+00
 2  3  2     0.0000000000e+00
 2  3  3    -3.5294081079e-02
 3  1  1     0.0000000000e+00
 3  1  2     0.0000000000e+00
 3  1  3    -6.1131141626e-02
 3  2  1     0.0000000000e+00
 3  2  2     0.0000000000e+00
 3  2  3    -3.5294081079e-02
 3  3  1    -1.5974458726e-02
 3  3  2    -9.2228580469e-03
 3  3  3     0.0000000000e+00

   19
0.0000000000e+00 0.0000000000e+00 0.0000000000e+00
-4.7125897040e+00 2.7208149340e+00 0.0000000000e+00
     1      1      1
 1  1  1    -8.9626315646e-02
 1  1  2     1.2022539391e-01
 1  1  3     0.0000000000e+00
 1  2  1    -5.0272098923e-02
 1  2  2     6.8561334856e-02
 1  2  3     0.0000000000e+00
 1  3  1     0.0000000000e+00
 1  3  2     0.0000000000e+00
 1  3  3     6.1131141639e-02
 2  1  1    -5.0272098923e-02
 2  1  2     6.8561334856e-02
 2  1  3     0.0000000000e+00
 2  2  1    -2.2674898539e-01
 2  2  2     6.2433971281e-02
 2  2  3     0.0000000000e+00
 2  3  1     0.0000000000e+00
 2  3  2     0.0000000000e+00
 2  3  3    -3.5294081079e-02
 3  1  1     0.0000000000e+00
 3  1  2     0.0000000000e+00
 3  1  3     6.1131141639e-02
 3  2  1     0.0000000000e+00
 3  2  2     0.0000000000e+00
 3  2  3    -3.5294081079e-02
 3  3  1     1.5974458729e-02
 3  3  2    -9.2228580469e-03
 3  3  3     0.0000000000e+00

   20
0.0000000000e+00 0.0000000000e+00 0.0000000000e+00
-4.7125897040e+00 2.7208149340e+00 0.0000000000e+00
     1      1      2
 1  1  1    -2.4252562612e-01
 1  1  2    -2.7635533925e-01
 1  1  3    -2.3621550017e-01
 1  2  1    -1.9035345439e-01
 1  2  2    -1.3049508689e-01
 1  2  3     5.9973831497e-02
 1  3  1    -3.6696978751e-01
 1  3  2     6.8991054384e-02
 1  3  3    -4.6367855354e-02
 2  1  1    -1.9035345439e-01
 2  1  2    -1.3049508689e-01
 2  1  3     5.9973831497e-02
 2  2  1     1.8464547293e-02
 2  2  2     4.0571706354e-01
 2  2  3    -1.6696368468e-01
 2  3  1     6.8991054384e-02
 2  3  2    -2.8730577993e-01
 2  3  3     2.6770493769e-02
 3  1  1    -3.6696978751e-01
 3  1  2     6.8991054384e-02
 3  1  3    -4.6367855354e-02
 3  2  1     6.8991054384e-02
 3  2  2    -2.8730577993e-01
 3  2  3     2.6770493769e-02
 3  3  1     1.0405438705e-01
 3  3  2    -6.0075828369e-02
 3  3  3    -4.0316219359e-02

   21
0.0000000000e+00 0.0000000000e+00 0.0000000000e+00
-4.7125897040e+00 2.7208149340e+00 0.0000000000e+00
     1      1      3
 1  1  1    -2.4252562612e-01
 1  1  2    -2.7635533925e-01
 1  1  3     2.3621550017e-01
 1  2  1    -1.9035345439e-01
 1  2  2    -1.3049508689e-01
 1  2  3    -5.9973831497e-02
 1  3  1     3.6696978751e-01
 1  3  2    -6.8991054384e-02
 1  3  3    -4.6367855354e-02
 2  1  1    -1.9035345439e-01
 2  1  2    -1.3049508689e-01
 2  1  3    -5.9973831497e-02
 2  2  1     1.8464547293e-02
 2  2  2     4.0571706354e-01
 2  2  3     1.6696368468e-01
 2  3  1    -6.8991054384e-02
 2  3  2     2.8730577993e-01
 2  3  3     2.6770493769e-02
 3  1  1     3.6696978751e-01
 3  1  2    -6.8991054384e-02
 3  1  3    -4.6367855354e-02
 3  2  1    -6.8991054384e-02
 3  2  2     2.8730577993e-01
 3  2  3     2.6770493769e-02
 3  3  1     1.0405438705e-01
 3  3  2    -6.0075828369e-02
 3  3  3     4.0316219359e-02

   22
0.0000000000e+00 0.0000000000e+00 0.0000000000e+00
-3.1417264700e+00 5.4416298680e+00 0.0000000000e+00
     1      1      2
 1  1  1    -5.9047994928e-02
 1  1  2     5.1242591267e-02
 1  1  3     1.5176309687e-01
 1  2  1    -4.9737892061e-02
 1  2  2    -1.0166346737e-02
 1  2  3    -1.3641397833e-02
 1  3  1    -7.9831848294e-02
 1  3  2     1.0069488176e-01
 1  3  3    -1.5535162386e-01
 2  1  1    -4.9737892061e-02
 2  1  2    -1.0166346737e-02
 2  1  3    -1.3641397833e-02
 2  2  1     9.4100382603e-02
 2  2  2     5.4227274270e-02
 2  2  3     4.2726057991e-02
 2  3  1    -7.4435523145e-02
 2  3  2    -1.0244218278e-01
 2  3  3    -1.0937950692e-01
 3  1  1    -7.9831848294e-02
 3  1  2     1.0069488176e-01
 3  1  3    -1.5535162386e-01
 3  2  1    -7.4435523145e-02
 3  2  2    -1.0244218278e-01
 3  2  3    -1.0937950692e-01
 3  3  1    -1.6387378273e-01
 3  3  2     1.3596636069e-01
 3  3  3    -1.6776999692e-01

   23
0.0000000000e+00 0.0000000000e+00 0.0000000000e+00
-3.1417264700e+00 5.4416298680e+00 0.0000000000e+00
     1      1      3
 1  1  1    -5.9047994928e-02
 1  1  2     5.1242591267e-02
 1  1  3    -1.5176309687e-01
 1  2  1    -4.9737892061e-02
 1  2  2    -1.0166346737e-02
 1  2  3     1.3641397833e-02
 1  3  1     7.9831848294e-02
 1  3  2    -1.0069488176e-01
 1  3  3    -1.5535162386e-01
 2  1  1    -4.9737892061e-02
 2  1  2    -1.0166346737e-02
 2  1  3     1.3641397833e-02
 2  2  1     9.4100382603e-02
 2  2  2     5.4227274270e-02
 2  2  3    -4.2726057991e-02
 2  3  1     7.4435523145e-02
 2  3  2     1.0244218278e-01
 2  3  3    -1.0937950692e-01
 3  1  1     7.9831848294e-02
 3  1  2    -1.0069488176e-01
 3  1  3    -1.5535162386e-01
 3  2  1     7.4435523145e-02
 3  2  2     1.0244218278e-01
 3  2  3    -1.0937950692e-01
 3  3  1    -1.6387378273e-01
 3  3  2     1.3596636069e-01
 3  3  3     1.6776999692e-01

   24
0.0000000000e+00 0.0000000000e+00 0.0000000000e+00
-1.0000006379e-09 5.4416298680e+00 0.0000000000e+00
     1      1      1
 1  1  1     9.9563591241e-11
 1  1  2    -1.0829500877e-01
 1  1  3     0.0000000000e+00
 1  2  1    -2.1674673247e-01
 1  2  2    -1.4424245357e-11
 1  2  3     0.0000000000e+00
 1  3  1     0.0000000000e+00
 1  3  2     0.0000000000e+00
 1  3  3    -8.4714422860e-12
 2  1  1    -2.1674673247e-01
 2  1  2    -1.4424245357e-11
 2  1  3     0.0000000000e+00
 2  2  1    -1.4424245357e-11
 2  2  2     7.8491442293e-02
 2  2  3     0.0000000000e+00
 2  3  1     0.0000000000e+00
 2  3  2     0.0000000000e+00
 2  3  3     4.6098475647e-02
 3  1  1     0.0000000000e+00
 3  1  2     0.0000000000e+00
 3  1  3    -8.4714422860e-12
 3  2  1     0.0000000000e+00
 3  2  2     0.0000000000e+00
 3  2  3     4.6098475647e-02
 3  3  1     1.6595981823e-11
 3  3  2    -9.0309234023e-02
 3  3  3     0.0000000000e+00

   25
0.0000000000e+00 0.0000000000e+00 0.0000000000e+00
-1.0000000827e-09 5.4416298680e+00 0.0000000000e+00
     1      1      2
 1  1  1     5.9047994946e-02
 1  1  2     5.1242591259e-02
 1  1  3     1.5176309686e-01
 1  2  1    -4.9737892030e-02
 1  2  2     1.0166346717e-02
 1  2  3     1.3641397817e-02
 1  3  1    -7.9831848284e-02
 1  3  2    -1.0069488173e-01
 1  3  3     1.5535162390e-01
 2  1  1    -4.9737892030e-02
 2  1  2     1.0166346717e-02
 2  1  3     1.3641397817e-02
 2  2  1    -9.4100382623e-02
 2  2  2     5.4227274270e-02
 2  2  3     4.2726057991e-02
 2  3  1     7.4435523183e-02
 2  3  2    -1.0244218278e-01
 2  3  3    -1.0937950692e-01
 3  1  1    -7.9831848284e-02
 3  1  2    -1.0069488173e-01
 3  1  3     1.5535162390e-01
 3  2  1     7.4435523183e-02
 3  2  2    -1.0244218278e-01
 3  2  3    -1.0937950692e-01
 3  3  1     1.6387378268e-01
 3  3  2     1.3596636069e-01
 3  3  3    -1.6776999692e-01

   26
0.0000000000e+00 0.0000000000e+00 0.0000000000e+00
-1.0000000827e-09 5.4416298680e+00 0.0000000000e+00
     1      1      3
 1  1  1     5.9047994946e-02
 1  1  2     5.1242591259e-02
 1  1  3    -1.5176309686e-01
 1  2  1    -4.9737892030e-02
 1  2  2     1.0166346717e-02
 1  2  3    -1.3641397817e-02
 1  3  1     7.9831848284e-02
 1  3  2     1.0069488173e-01
 1  3  3     1.5535162390e-01
 2  1  1    -4.9737892030e-02
 2  1  2     1.0166346717e-02
 2  1  3    -1.3641397817e-02
 2  2  1    -9.4100382623e-02
 2  2  2     5.4227274270e-02
 2  2  3    -4.2726057991e-02
 2  3  1    -7.4435523183e-02
 2  3  2     1.0244218278e-01
 2  3  3    -1.0937950692e-01
 3  1  1     7.9831848284e-02
 3  1  2     1.0069488173e-01
 3  1  3     1.5535162390e-01
 3  2  1    -7.4435523183e-02
 3  2  2     1.0244218278e-01
 3  2  3    -1.0937950692e-01
 3  3  1     1.6387378268e-01
 3  3  2     1.3596636069e-01
 3  3  3     1.6776999692e-01

   27
0.0000000000e+00 0.0000000000e+00 0.0000000000e+00
1.0000000827e-09 -5.4416298680e+00 0.0000000000e+00
     1      1      1
 1  1  1     2.4910943281e-11
 1  1  2    -2.7251536930e-01
 1  1  3     0.0000000000e+00
 1  2  1     6.8479616468e-02
 1  2  2     1.7054291458e-11
 1  2  3     0.0000000000e+00
 1  3  1     0.0000000000e+00
 1  3  2     0.0000000000e+00
 1  3  3    -1.2971880707e-11
 2  1  1     6.8479616468e-02
 2  1  2     1.7054299857e-11
 2  1  3     0.0000000000e+00
 2  2  1     1.7054361186e-11
 2  2  2    -9.2803361123e-02
 2  2  3     0.0000000000e+00
 2  3  1     0.0000000000e+00
 2  3  2     0.0000000000e+00
 2  3  3     7.0588162158e-02
 3  1  1     0.0000000000e+00
 3  1  2     0.0000000000e+00
 3  1  3    -1.2971880707e-11
 3  2  1     0.0000000000e+00
 3  2  2     0.0000000000e+00
 3  2  3     7.0588162158e-02
 3  3  1    -3.3897415857e-12
 3  3  2     1.8445716094e-02
 3  3  3     0.0000000000e+00

   28
0.0000000000e+00 0.0000000000e+00 0.0000000000e+00
1.5708632350e+00 -2.7208149340e+00 0.0000000000e+00
     1      1      1
 1  1  1    -2.1443850380e+00
 1  1  2     7.7945526662e-01
 1  1  3     0.0000000000e+00
 1  2  1     3.4686446572e+00
 1  2  2    -2.3254149358e+00
 1  2  3     0.0000000000e+00
 1  3  1     0.0000000000e+00
 1  3  2     0.0000000000e+00
 1  3  3     7.3524366927e-01
 2  1  1     3.4686446572e+00
 2  1  2    -2.3254149358e+00
 2  1  3     0.0000000000e+00
 2  2  1    -5.1716723101e+00
 2  2  2     3.1353401795e+00
 2  2  3     0.0000000000e+00
 2  3  1     0.0000000000e+00
 2  3  2     0.0000000000e+00
 2  3  3     1.4559748464e+00
 3  1  1     0.0000000000e+00
 3  1  2     0.0000000000e+00
 3  1  3     7.3524366927e-01
 3  2  1     0.0000000000e+00
 3  2  2     0.0000000000e+00
 3  2  3     1.4559748464e+00
 3  3  1     1.1112820760e-01
 3  3  2     2.1265702293e+00
 3  3  3     0.0000000000e+00

   29
0.0000000000e+00 0.0000000000e+00 0.0000000000e+00
1.5708632350e+00 -2.7208149340e+00 0.0000000000e+00
     1      1      2
 1  1  1     4.5060739332e-02
 1  1  2    -1.1306088030e-02
 1  1  3     5.8171520633e-02
 1  2  1    -5.1113482776e-02
 1  2  2    -7.5779991095e-02
 1  2  3     4.0393723876e-02
 1  3  1    -8.5418963349e-02
 1  3  2    -7.1209800766e-02
 1  3  3    -1.7240124357e-01
 2  1  1    -5.1113482776e-02
 2  1  2    -7.5779991095e-02
 2  1  3     4.0393723876e-02
 2  2  1     6.3805037410e-02
 2  2  2    -1.1072586521e-02
 2  2  3     1.3631763422e-01
 2  3  1     1.0392060414e-01
 2  3  2    -9.6855067726e-02
 2  3  3    -7.9848699344e-02
 3  1  1    -8.5418963349e-02
 3  1  2    -7.1209800766e-02
 3  1  3    -1.7240124357e-01
 3  2  1     1.0392060414e-01
 3  2  2    -9.6855067726e-02
 3  2  3    -7.9848699344e-02
 3  3  1     3.5813431104e-02
 3  3  2    -2.0990203918e-01
 3  3  3    -1.6776999692e-01

   30
0.0000000000e+00 0.0000000000e+00 0.0000000000e+00
1.5708632350e+00 -2.7208149340e+00 0.0000000000e+00
     1      1      3
 1  1  1     4.5060739332e-02
 1  1  2    -1.1306088030e-02
 1  1  3    -5.8171520633e-02
 1  2  1    -5.1113482776e-02
 1  2  2    -7.5779991095e-02
 1  2  3    -4.0393723876e-02
 1  3  1     8.5418963349e-02
 1  3  2     7.1209800766e-02
 1  3  3    -1.7240124357e-01
 2  1  1    -5.1113482776e-02
 2  1  2    -7.5779991095e-02
 2  1  3    -4.0393723876e-02
 2  2  1     6.3805037410e-02
 2  2  2    -1.1072586521e-02
 2  2  3    -1.3631763422e-01
 2  3  1    -1.0392060414e-01
 2  3  2     9.6855067726e-02
 2  3  3    -7.9848699344e-02
 3  1  1     8.5418963349e-02
 3  1  2     7.1209800766e-02
 3  1  3    -1.7240124357e-01
 3  2  1    -1.0392060414e-01
 3  2  2     9.6855067726e-02
 3  2  3    -7.9848699344e-02
 3  3  1     3.5813431104e-02
 3  3  2    -2.0990203918e-01
 3  3  3     1.6776999692e-01

   31
0.0000000000e+00 0.0000000000e+00 0.0000000000e+00
4.7125897040e+00 -2.7208149340e+00 0.0000000000e+00
     1      1      1
 1  1  1    -6.6318958094e-02
 1  1  2    -1.7845746409e-01
 1  1  3     0.0000000000e+00
 1  2  1    -1.2423160226e-01
 1  2  2    -5.3413635365e-02
 1  2  3     0.0000000000e+00
 1  3  1     0.0000000000e+00
 1  3  2     0.0000000000e+00
 1  3  3     3.9922450989e-02
 2  1  1    -1.2423160226e-01
 2  1  2    -5.3413635365e-02
 2  1  3     0.0000000000e+00
 2  2  1     4.0508312446e-02
 2  2  2     1.9335924737e-01
 2  2  3     0.0000000000e+00
 2  3  1     0.0000000000e+00
 2  3  2     0.0000000000e+00
 2  3  3    -2.3049237824e-02
 3  1  1     0.0000000000e+00
 3  1  2     0.0000000000e+00
 3  1  3     3.9922450989e-02
 3  2  1     0.0000000000e+00
 3  2  2     0.0000000000e+00
 3  2  3    -2.3049237824e-02
 3  3  1    -7.8210090865e-02
 3  3  2     4.5154617011e-02
 3  3  3     0.0000000000e+00

   32
0.0000000000e+00 0.0000000000e+00 0.0000000000e+00
-4.7125897030e+00 -2.7208149340e+00 0.0000000000e+00
     1      1      1
 1  1  1     6.6318958251e-02
 1  1  2    -1.7845746413e-01
 1  1  3     0.0000000000e+00
 1  2  1    -1.2423160226e-01
 1  2  2     5.3413635294e-02
 1  2  3     0.0000000000e+00
 1  3  1     0.0000000000e+00
 1  3  2     0.0000000000e+00
 1  3  3    -3.9922450980e-02
 2  1  1    -1.2423160226e-01
 2  1  2     5.3413635294e-02
 2  1  3     0.0000000000e+00
 2  2  1    -4.0508312517e-02
 2  2  2     1.9335924737e-01
 2  2  3     0.0000000000e+00
 2  3  1     0.0000000000e+00
 2  3  2     0.0000000000e+00
 2  3  3    -2.3049237824e-02
 3  1  1     0.0000000000e+00
 3  1  2     0.0000000000e+00
 3  1  3    -3.9922450980e-02
 3  2  1     0.0000000000e+00
 3  2  2     0.0000000000e+00