 1989

    1
0.0000000000e+00 0.0000000000e+00 0.0000000000e+00
0.0000000000e+00 0.0000000000e+00 0.0000000000e+00
     1      1      1
 1  1  1     0.0000000000e+00
 1  1  2    -1.7039434898e+01
 1  1  3     0.0000000000e+00
 1  2  1    -1.7039434898e+01
 1  2  2     0.0000000000e+00
 1  2  3     0.0000000000e+00
 1  3  1     0.0000000000e+00
 1  3  2     0.0000000000e+00
 1  3  3     0.0000000000e+00
 2  1  1    -1.7039434898e+01
 2  1  2     0.0000000000e+00
 2  1  3     0.0000000000e+00
 2  2  1     0.0000000000e+00
 2  2  2     1.7039434883e+01
 2  2  3     0.0000000000e+00
 2  3  1     0.0000000000e+00
 2  3  2     0.0000000000e+00
 2  3  3     0.0000000000e+00
 3  1  1     0.0000000000e+00
 3  1  2     0.0000000000e+00
 3  1  3     0.0000000000e+00
 3  2  1     0.0000000000e+00
 3  2  2     0.0000000000e+00
 3  2  3     0.0000000000e+00
 3  3  1     0.0000000000e+00
 3  3  2     0.0000000000e+00
 3  3  3     0.0000000000e+00

    2
0.0000000000e+00 0.0000000000e+00 0.0000000000e+00
0.0000000000e+00 0.0000000000e+00 0.0000000000e+00
     1      1      2
 1  1  1    -7.6859091570e+00
 1  1  2     4.6471610474e+00
 1  1  3    -9.7691586879e+00
 1  2  1     3.5732960947e+00
 1  2  2    -1.9419734975e+00
 1  2  3     4.5721197573e+00
 1  3  1    -9.6824679602e+00
 1  3  2     5.8543312428e+00
 1  3  3    -9.4587087625e+00
 2  1  1     3.5732960947e+00
 2  1  2    -1.9419734975e+00
 2  1  3     4.5721197573e+00
 2  2  1    -3.8019621552e+00
 2  2  2     1.9853645444e+00
 2  2  3    -4.4897295364e+00
 2  3  1     5.8543312428e+00
 2  3  2    -2.9224685168e+00
 2  3  3     5.4609880478e+00
 3  1  1    -9.6824679602e+00
 3  1  2     5.8543312428e+00
 3  1  3    -9.4587087625e+00
 3  2  1     5.8543312428e+00
 3  2  2    -2.9224685168e+00
 3  2  3     5.4609880478e+00
 3  3  1    -9.8204961610e+00
 3  3  2     5.6698660997e+00
 3  3  3    -9.8516827950e+00

    3
0.0000000000e+00 0.0000000000e+00 0.0000000000e+00
0.0000000000e+00 0.0000000000e+00 0.0000000000e+00
     1      1      3
 1  1  1    -7.6859091570e+00
 1  1  2     4.6471610474e+00
 1  1  3     9.7691586879e+00
 1  2  1     3.5732960947e+00
 1  2  2    -1.9419734975e+00
 1  2  3    -4.5721197573e+00
 1  3  1     9.6824679602e+00
 1  3  2    -5.8543312428e+00
 1  3  3    -9.4587087625e+00
 2  1  1     3.5732960947e+00
 2  1  2    -1.9419734975e+00
 2  1  3    -4.5721197573e+00
 2  2  1    -3.8019621552e+00
 2  2  2     1.9853645444e+00
 2  2  3     4.4897295364e+00
 2  3  1    -5.8543312428e+00
 2  3  2     2.9224685168e+00
 2  3  3     5.4609880478e+00
 3  1  1     9.6824679602e+00
 3  1  2    -5.8543312428e+00
 3  1  3    -9.4587087625e+00
 3  2  1    -5.8543312428e+00
 3  2  2     2.9224685168e+00
 3  2  3     5.4609880478e+00
 3  3  1    -9.8204961610e+00
 3  3  2     5.6698660997e+00
 3  3  3     9.8516827950e+00

    4
0.0000000000e+00 0.0000000000e+00 0.0000000000e+00
3.2699761980e+00 0.0000000000e+00 0.0000000000e+00
     1      1      1
 1  1  1    -5.4957332218e+00
 1  1  2     2.4464472739e+00
 1  1  3     0.0000000000e+00
 1  2  1     2.7812065391e-01
 1  2  2    -2.4921133786e-01
 1  2  3     0.0000000000e+00
 1  3  1     0.0000000000e+00
 1  3  2     0.0000000000e+00
 1  3  3    -6.6553915003e-01
 2  1  1     2.7812065391e-01
 2  1  2    -2.4921133786e-01
 2  1  3     0.0000000000e+00
 2  2  1     4.5904187219e-01
 2  2  2    -5.2193802793e-02
 2  2  3     0.0000000000e+00
 2  3  1     0.0000000000e+00
 2  3  2     0.0000000000e+00
 2  3  3    -1.1301168917e+00
 3  1  1     0.0000000000e+00
 3  1  2     0.0000000000e+00
 3  1  3    -6.6553915003e-01
 3  2  1     0.0000000000e+00
 3  2  2     0.0000000000e+00
 3  2  3    -1.1301168917e+00
 3  3  1    -1.3964211516e+00
 3  3  2    -7.7579256684e-01
 3  3  3     0.0000000000e+00

    5
0.0000000000e+00 0.0000000000e+00 0.0000000000e+00
3.2699761980e+00 0.0000000000e+00 0.0000000000e+00
     1      1      2
 1  1  1     5.3891737009e-02
 1  1  2    -1.1151029692e-01
 1  1  3     6.7982497053e-02
 1  2  1     2.8723591096e-02
 1  2  2     2.6083499378e-02
 1  2  3     4.9782253884e-02
 1  3  1    -7.7872316827e-02
 1  3  2     7.5966582464e-02
 1  3  3    -4.1642025409e-02
 2  1  1     2.8723591096e-02
 2  1  2     2.6083499378e-02
 2  1  3     4.9782253884e-02
 2  2  1     8.5491778980e-02
 2  2  2     7.6263997021e-02
 2  2  3     5.1411493304e-02
 2  3  1    -9.0297698679e-02
 2  3  2    -5.2985471150e-02
 2  3  3     1.5332015729e-01
 3  1  1    -7.7872316827e-02
 3  1  2     7.5966582464e-02
 3  1  3    -4.1642025409e-02
 3  2  1    -9.0297698679e-02
 3  2  2    -5.2985471150e-02
 3  2  3     1.5332015729e-01
 3  3  1     2.0323032733e-01
 3  3  2     5.7252768444e-02
 3  3  3    -1.6653066133e-01

    6
0.0000000000e+00 0.0000000000e+00 0.0000000000e+00
3.2699761980e+00 0.0000000000e+00 0.0000000000e+00
     1      1      3
 1  1  1     5.3891737009e-02
 1  1  2    -1.1151029692e-01
 1  1  3    -6.7982497053e-02
 1  2  1     2.8723591096e-02
 1  2  2     2.6083499378e-02
 1  2  3    -4.9782253884e-02
 1  3  1     7.7872316827e-02
 1  3  2    -7.5966582464e-02
 1  3  3    -4.1642025409e-02
 2  1  1     2.8723591096e-02
 2  1  2     2.6083499378e-02
 2  1  3    -4.9782253884e-02
 2  2  1     8.5491778980e-02
 2  2  2     7.6263997021e-02
 2  2  3    -5.1411493304e-02
 2  3  1     9.0297698679e-02
 2  3  2     5.2985471150e-02
 2  3  3     1.5332015729e-01
 3  1  1     7.7872316827e-02
 3  1  2    -7.5966582464e-02
 3  1  3    -4.1642025409e-02
 3  2  1     9.0297698679e-02
 3  2  2     5.2985471150e-02
 3  2  3     1.5332015729e-01
 3  3  1     2.0323032733e-01
 3  3  2     5.7252768444e-02
 3  3  3     1.6653066133e-01

    7
0.0000000000e+00 0.0000000000e+00 0.0000000000e+00
-6.5399523960e+00 0.0000000000e+00 0.0000000000e+00
     1      1      2
 1  1  1    -5.3891737009e-02
 1  1  2    -1.1151029692e-01
 1  1  3     6.7982497053e-02
 1  2  1     2.8723591096e-02
 1  2  2    -2.6083499378e-02
 1  2  3    -4.9782253884e-02
 1  3  1    -7.7872316827e-02
 1  3  2    -7.5966582464e-02
 1  3  3     4.1642025409e-02
 2  1  1     2.8723591096e-02
 2  1  2    -2.6083499378e-02
 2  1  3    -4.9782253884e-02
 2  2  1    -8.5491778980e-02
 2  2  2     7.6263997021e-02
 2  2  3     5.1411493304e-02
 2  3  1     9.0297698679e-02
 2  3  2    -5.2985471150e-02
 2  3  3     1.5332015729e-01
 3  1  1    -7.7872316827e-02
 3  1  2    -7.5966582464e-02
 3  1  3     4.1642025409e-02
 3  2  1     9.0297698679e-02
 3  2  2    -5.2985471150e-02
 3  2  3     1.5332015729e-01
 3  3  1    -2.0323032733e-01
 3  3  2     5.7252768444e-02
 3  3  3    -1.6653066133e-01

    8
0.0000000000e+00 0.0000000000e+00 0.0000000000e+00
-6.5399523960e+00 0.0000000000e+00 0.0000000000e+00
     1      1      3
 1  1  1    -5.3891737009e-02
 1  1  2    -1.1151029692e-01
 1  1  3    -6.7982497053e-02
 1  2  1     2.8723591096e-02
 1  2  2    -2.6083499378e-02
 1  2  3     4.9782253884e-02
 1  3  1     7.7872316827e-02
 1  3  2     7.5966582464e-02
 1  3  3     4.1642025409e-02
 2  1  1     2.8723591096e-02
 2  1  2    -2.6083499378e-02
 2  1  3     4.9782253884e-02
 2  2  1    -8.5491778980e-02
 2  2  2     7.6263997021e-02
 2  2  3    -5.1411493304e-02
 2  3  1    -9.0297698679e-02
 2  3  2     5.2985471150e-02
 2  3  3     1.5332015729e-01
 3  1  1     7.7872316827e-02
 3  1  2     7.5966582464e-02
 3  1  3     4.1642025409e-02
 3  2  1    -9.0297698679e-02
 3  2  2     5.2985471150e-02
 3  2  3     1.5332015729e-01
 3  3  1    -2.0323032733e-01
 3  3  2     5.7252768444e-02
 3  3  3     1.6653066133e-01

    9
0.0000000000e+00 0.0000000000e+00 0.0000000000e+00
-3.2699761980e+00 0.0000000000e+00 0.0000000000e+00
     1      1      1
 1  1  1     5.4957332218e+00
 1  1  2     2.4464472739e+00
 1  1  3     0.0000000000e+00
 1  2  1     2.7812065391e-01
 1  2  2     2.4921133786e-01
 1  2  3     0.0000000000e+00
 1  3  1     0.0000000000e+00
 1  3  2     0.0000000000e+00
 1  3  3     6.6553915003e-01
 2  1  1     2.7812065391e-01
 2  1  2     2.4921133786e-01
 2  1  3     0.0000000000e+00
 2  2  1    -4.5904187219e-01
 2  2  2    -5.2193802793e-02
 2  2  3     0.0000000000e+00
 2  3  1     0.0000000000e+00
 2  3  2     0.0000000000e+00
 2  3  3    -1.1301168917e+00
 3  1  1     0.0000000000e+00
 3  1  2     0.0000000000e+00
 3  1  3     6.6553915003e-01
 3  2  1     0.0000000000e+00
 3  2  2     0.0000000000e+00
 3  2  3    -1.1301168917e+00
 3  3  1     1.3964211516e+00
 3  3  2    -7.7579256684e-01
 3  3  3     0.0000000000e+00

   10
0.0000000000e+00 0.0000000000e+00 0.0000000000e+00
-3.2699761980e+00 0.0000000000e+00 0.0000000000e+00
     1      1      2
 1  1  1     7.6859091570e+00
 1  1  2     4.6471610474e+00
 1  1  3    -9.7691586879e+00
 1  2  1     3.5732960947e+00
 1  2  2     1.9419734975e+00
 1  2  3    -4.5721197573e+00
 1  3  1    -9.6824679602e+00
 1  3  2    -5.8543312428e+00
 1  3  3     9.4587087625e+00
 2  1  1     3.5732960947e+00
 2  1  2     1.9419734975e+00
 2  1  3    -4.5721197573e+00
 2  2  1     3.8019621552e+00
 2  2  2     1.9853645444e+00
 2  2  3    -4.4897295364e+00
 2  3  1    -5.8543312428e+00
 2  3  2    -2.9224685168e+00
 2  3  3     5.4609880478e+00
 3  1  1    -9.6824679602e+00
 3  1  2    -5.8543312428e+00
 3  1  3     9.4587087625e+00
 3  2  1    -5.8543312428e+00
 3  2  2    -2.9224685168e+00
 3  2  3     5.4609880478e+00
 3  3  1     9.8204961610e+00
 3  3  2     5.6698660997e+00
 3  3  3    -9.8516827950e+00

   11
0.0000000000e+00 0.0000000000e+00 0.0000000000e+00
-3.2699761980e+00 0.0000000000e+00 0.0000000000e+00
     1      1      3
 1  1  1     7.6859091570e+00
 1  1  2     4.6471610474e+00
 1  1  3     9.7691586879e+00
 1  2  1     3.5732960947e+00
 1  2  2     1.9419734975e+00
 1  2  3     4.5721197573e+00
 1  3  1     9.6824679602e+00
 1  3  2     5.8543312428e+00
 1  3  3     9.4587087625e+00
 2  1  1     3.5732960947e+00
 2  1  2     1.9419734975e+00
 2  1  3     4.5721197573e+00
 2  2  1     3.8019621552e+00
 2  2  2     1.9853645444e+00
 2  2  3     4.4897295364e+00
 2  3  1     5.8543312428e+00
 2  3  2     2.9224685168e+00
 2  3  3     5.4609880478e+00
 3  1  1     9.6824679602e+00
 3  1  2     5.8543312428e+00
 3  1  3     9.4587087625e+00
 3  2  1     5.8543312428e+00
 3  2  2     2.9224685168e+00
 3  2  3     5.4609880478e+00
 3  3  1     9.8204961610e+00
 3  3  2     5.6698660997e+00
 3  3  3     9.8516827950e+00

   12
0.0000000000e+00 0.0000000000e+00 0.0000000000e+00
-1.6349880990e+00 2.8318824560e+00 0.0000000000e+00
     1      1      1
 1  1  1     8.5534175321e-02
 1  1  2    -8.6143577089e-01
 1  1  3     0.0000000000e+00
 1  2  1    -3.9063773337e-01
 1  2  2     2.5912797099e+00
 1  2  3     0.0000000000e+00
 1  3  1     0.0000000000e+00
 1  3  2     0.0000000000e+00
 1  3  3     1.3114795129e+00
 2  1  1    -3.9063773337e-01
 2  1  2     2.5912797099e+00
 2  1  3     0.0000000000e+00
 2  2  1     3.5932716903e-01
 2  2  2    -4.6975936181e+00
 2  2  3     0.0000000000e+00
 2  3  1     0.0000000000e+00
 2  3  2     0.0000000000e+00
 2  3  3    -1.1315365035e-02
 3  1  1     0.0000000000e+00
 3  1  2     0.0000000000e+00
 3  1  3     1.3114795129e+00
 3  2  1     0.0000000000e+00
 3  2  2     0.0000000000e+00
 3  2  3    -1.1315365035e-02
 3  3  1     1.3700666471e+00
 3  3  2    -8.2143990775e-01
 3  3  3     0.0000000000e+00

   13
0.0000000000e+00 0.0000000000e+00 0.0000000000e+00
-1.6349880990e+00 2.8318824560e+00 0.0000000000e+00
     1      1      2
 1  1  1     0.0000000000e+00
 1  1  2    -1.9380305767e+00
 1  1  3    -1.8500149665e+00
 1  2  1     2.0969932855e-01
 1  2  2     0.0000000000e+00
 1  2  3     0.0000000000e+00
 1  3  1     4.5753120106e-01
 1  3  2     0.0000000000e+00
 1  3  3     0.0000000000e+00
 2  1  1     2.0969932855e-01
 2  1  2     0.0000000000e+00
 2  1  3     0.0000000000e+00
 2  2  1     0.0000000000e+00
 2  2  2    -1.1327020600e+01
 2  2  3    -1.2408873251e+01
 2  3  1     0.0000000000e+00
 2  3  2    -1.3062467669e+01
 2  3  3    -1.0921976096e+01
 3  1  1     4.5753120106e-01
 3  1  2     0.0000000000e+00
 3  1  3     0.0000000000e+00
 3  2  1     0.0000000000e+00
 3  2  2    -1.3062467669e+01
 3  2  3    -1.0921976096e+01
 3  3  1     0.0000000000e+00
 3  3  2    -1.1339732199e+01
 3  3  3    -9.8516827950e+00

   14
0.0000000000e+00 0.0000000000e+00 0.0000000000e+00
-1.6349880990e+00 2.8318824560e+00 0.0000000000e+00
     1      1      3
 1  1  1     0.0000000000e+00
 1  1  2    -1.9380305767e+00
 1  1  3     1.8500149665e+00
 1  2  1     2.0969932855e-01
 1  2  2     0.0000000000e+00
 1  2  3     0.0000000000e+00
 1  3  1    -4.5753120106e-01
 1  3  2     0.0000000000e+00
 1  3  3     0.0000000000e+00
 2  1  1     2.0969932855e-01
 2  1  2     0.0000000000e+00
 2  1  3     0.0000000000e+00
 2  2  1     0.0000000000e+00
 2  2  2    -1.1327020600e+01
 2  2  3     1.2408873251e+01
 2  3  1     0.0000000000e+00
 2  3  2     1.3062467669e+01
 2  3  3    -1.0921976096e+01
 3  1  1    -4.5753120106e-01
 3  1  2     0.0000000000e+00
 3  1  3     0.0000000000e+00
 3  2  1     0.0000000000e+00
 3  2  2     1.3062467669e+01
 3  2  3    -1.0921976096e+01
 3  3  1     0.0000000000e+00
 3  3  2    -1.1339732199e+01
 3  3  3     9.8516827950e+00

   15
0.0000000000e+00 0.0000000000e+00 0.0000000000e+00
1.6349880990e+00 2.8318824560e+00 0.0000000000e+00
     1      1      1
 1  1  1    -8.5534175321e-02
 1  1  2    -8.6143577089e-01
 1  1  3     0.0000000000e+00
 1  2  1    -3.9063773337e-01
 1  2  2    -2.5912797099e+00
 1  2  3     0.0000000000e+00
 1  3  1     0.0000000000e+00
 1  3  2     0.0000000000e+00
 1  3  3    -1.3114795129e+00
 2  1  1    -3.9063773337e-01
 2  1  2    -2.5912797099e+00
 2  1  3     0.0000000000e+00
 2  2  1    -3.5932716903e-01
 2  2  2    -4.6975936181e+00
 2  2  3     0.0000000000e+00
 2  3  1     0.0000000000e+00
 2  3  2     0.0000000000e+00
 2  3  3    -1.1315365035e-02
 3  1  1     0.0000000000e+00
 3  1  2     0.0000000000e+00
 3  1  3    -1.3114795129e+00
 3  2  1     0.0000000000e+00
 3  2  2     0.0000000000e+00
 3  2  3    -1.1315365035e-02
 3  3  1    -1.3700666471e+00
 3  3  2    -8.2143990775e-01
 3  3  3     0.0000000000e+00

   16
0.0000000000e+00 0.0000000000e+00 0.0000000000e+00
1.6349880990e+00 2.8318824560e+00 0.0000000000e+00
     1      1      2
 1  1  1     2.9044102493e-01
 1  1  2    -2.1503676829e-01
 1  1  3    -2.1657455979e-01
 1  2  1    -1.6346347592e-01
 1  2  2     1.2658952911e-01
 1  2  3    -5.7866460157e-02
 1  3  1    -3.0171602904e-01
 1  3  2    -9.4618870463e-02
 1  3  3     3.0508435834e-02
 2  1  1    -1.6346347592e-01
 2  1  2     1.2658952911e-01
 2  1  3    -5.7866460157e-02
 2  2  1     3.7261966456e-02
 2  2  2     4.0423617816e-01
 2  2  3    -1.4975612694e-01
 2  3  1    -9.4618870463e-02
 2  3  2    -1.9245956816e-01
 2  3  3     1.7614053633e-02
 3  1  1    -3.0171602904e-01
 3  1  2    -9.4618870463e-02
 3  1  3     3.0508435834e-02
 3  2  1    -9.4618870463e-02
 3  2  2    -1.9245956816e-01
 3  2  3     1.7614053633e-02
 3  3  1    -1.3234819646e-01
 3  3  2    -7.6411266820e-02
 3  3  3    -5.4906261083e-02

   17
0.0000000000e+00 0.0000000000e+00 0.0000000000e+00
1.6349880990e+00 2.8318824560e+00 0.0000000000e+00
     1      1      3
 1  1  1     2.9044102493e-01
 1  1  2    -2.1503676829e-01
 1  1  3     2.1657455979e-01
 1  2  1    -1.6346347592e-01
 1  2  2     1.2658952911e-01
 1  2  3     5.7866460157e-02
 1  3  1     3.0171602904e-01
 1  3  2     9.4618870463e-02
 1  3  3     3.0508435834e-02
 2  1  1    -1.6346347592e-01
 2  1  2     1.2658952911e-01
 2  1  3     5.7866460157e-02
 2  2  1     3.7261966456e-02
 2  2  2     4.0423617816e-01
 2  2  3     1.4975612694e-01
 2  3  1     9.4618870463e-02
 2  3  2     1.9245956816e-01
 2  3  3     1.7614053633e-02
 3  1  1     3.0171602904e-01
 3  1  2     9.4618870463e-02
 3  1  3     3.0508435834e-02
 3  2  1     9.4618870463e-02
 3  2  2     1.9245956816e-01
 3  2  3     1.7614053633e-02
 3  3  1    -1.3234819646e-01
 3  3  2    -7.6411266820e-02
 3  3  3     5.4906261083e-02

   18
0.0000000000e+00 0.0000000000e+00 0.0000000000e+00
4.9049642970e+00 2.8318824560e+00 0.0000000000e+00
     1      1      1
 1  1  1     1.5892645246e-01
 1  1  2     1.4617825784e-01
 1  1  3     0.0000000000e+00
 1  2  1     7.2114947084e-04
 1  2  2    -3.1004216526e-02
 1  2  3     0.0000000000e+00
 1  3  1     0.0000000000e+00
 1  3  2     0.0000000000e+00
 1  3  3    -5.4839474727e-02
 2  1  1     7.2114947084e-04
 2  1  2    -3.1004216526e-02
 2  1  3     0.0000000000e+00
 2  2  1     2.2093488538e-01
 2  2  2     7.3134787771e-02
 2  2  3     0.0000000000e+00
 2  3  1     0.0000000000e+00
 2  3  2     0.0000000000e+00
 2  3  3    -3.1661585482e-02
 3  1  1     0.0000000000e+00
 3  1  2     0.0000000000e+00
 3  1  3    -5.4839474727e-02
 3  2  1     0.0000000000e+00
 3  2  2     0.0000000000e+00
 3  2  3    -3.1661585482e-02
 3  3  1    -2.2386848854e-03
 3  3  2    -1.2925053206e-03
 3  3  3     0.0000000000e+00

   19
0.0000000000e+00 0.0000000000e+00 0.0000000000e+00
-4.9049642970e+00 2.8318824560e+00 0.0000000000e+00
     1      1      1
 1  1  1    -1.5892645246e-01
 1  1  2     1.4617825784e-01
 1  1  3     0.0000000000e+00
 1  2  1     7.2114947084e-04
 1  2  2     3.1004216526e-02
 1  2  3     0.0000000000e+00
 1  3  1     0.0000000000e+00
 1  3  2     0.0000000000e+00
 1  3  3     5.4839474727e-02
 2  1  1     7.2114947084e-04
 2  1  2     3.1004216526e-02
 2  1  3     0.0000000000e+00
 2  2  1    -2.2093488538e-01
 2  2  2     7.3134787771e-02
 2  2  3     0.0000000000e+00
 2  3  1     0.0000000000e+00
 2  3  2     0.0000000000e+00
 2  3  3    -3.1661585482e-02
 3  1  1     0.0000000000e+00
 3  1  2     0.0000000000e+00
 3  1  3     5.4839474727e-02
 3  2  1     0.0000000000e+00
 3  2  2     0.0000000000e+00
 3  2  3    -3.1661585482e-02
 3  3  1     2.2386848854e-03
 3  3  2    -1.2925053206e-03
 3  3  3     0.0000000000e+00

   20
0.0000000000e+00 0.0000000000e+00 0.0000000000e+00
-4.9049642970e+00 2.8318824560e+00 0.0000000000e+00
     1      1      2
 1  1  1    -2.9044102493e-01
 1  1  2    -2.1503676829e-01
 1  1  3    -2.1657455979e-01
 1  2  1    -1.6346347592e-01
 1  2  2    -1.2658952911e-01
 1  2  3     5.7866460157e-02
 1  3  1    -3.0171602904e-01
 1  3  2     9.4618870463e-02
 1  3  3    -3.0508435834e-02
 2  1  1    -1.6346347592e-01
 2  1  2    -1.2658952911e-01
 2  1  3     5.7866460157e-02
 2  2  1    -3.7261966456e-02
 2  2  2     4.0423617816e-01
 2  2  3    -1.4975612694e-01
 2  3  1     9.4618870463e-02
 2  3  2    -1.9245956816e-01
 2  3  3     1.7614053633e-02
 3  1  1    -3.0171602904e-01
 3  1  2     9.4618870463e-02
 3  1  3    -3.0508435834e-02
 3  2  1     9.4618870463e-02
 3  2  2    -1.9245956816e-01
 3  2  3     1.7614053633e-02
 3  3  1     1.3234819646e-01
 3  3  2    -7.6411266820e-02
 3  3  3    -5.4906261083e-02

   21
0.0000000000e+00 0.0000000000e+00 0.0000000000e+00
-4.9049642970e+00 2.8318824560e+00 0.0000000000e+00
     1      1      3
 1  1  1    -2.9044102493e-01
 1  1  2    -2.1503676829e-01
 1  1  3     2.1657455979e-01
 1  2  1    -1.6346347592e-01
 1  2  2    -1.2658952911e-01
 1  2  3    -5.7866460157e-02
 1  3  1     3.0171602904e-01
 1  3  2    -9.4618870463e-02
 1  3  3    -3.0508435834e-02
 2  1  1    -1.6346347592e-01
 2  1  2    -1.2658952911e-01
 2  1  3    -5.7866460157e-02
 2  2  1    -3.7261966456e-02
 2  2  2     4.0423617816e-01
 2  2  3     1.4975612694e-01
 2  3  1    -9.4618870463e-02
 2  3  2     1.9245956816e-01
 2  3  3     1.7614053633e-02
 3  1  1     3.0171602904e-01
 3  1  2    -9.4618870463e-02
 3  1  3    -3.0508435834e-02
 3  2  1    -9.4618870463e-02
 3  2  2     1.9245956816e-01
 3  2  3     1.7614053633e-02
 3  3  1     1.3234819646e-01
 3  3  2    -7.6411266820e-02
 3  3  3     5.4906261083e-02

   22
0.0000000000e+00 0.0000000000e+00 0.0000000000e+00
-3.2699761980e+00 5.6637649120e+00 0.0000000000e+00
     1      1      2
 1  1  1    -9.6188420303e-02
 1  1  2     6.2784437638e-02
 1  1  3     9.8666940816e-02
 1  2  1    -5.8781585723e-02
 1  2  2    -3.4721116361e-02
 1  2  3    -3.2066582026e-02
 1  3  1    -6.5412737960e-02
 1  3  2     9.7491239889e-02
 1  3  3    -1.1195813848e-01
 2  1  1    -5.8781585723e-02
 2  1  2    -3.4721116361e-02
 2  1  3    -3.2066582026e-02
 2  2  1     5.7020853277e-02
 2  2  2     7.5548377940e-02
 2  2  3     2.0727049568e-02
 2  3  1    -6.8773041254e-02
 2  3  2    -6.5445050005e-02
 2  3  3    -1.1272313050e-01
 3  1  1    -6.5412737960e-02
 3  1  2     9.7491239889e-02
 3  1  3    -1.1195813848e-01
 3  2  1    -6.8773041254e-02
 3  2  2    -6.5445050005e-02
 3  2  3    -1.1272313050e-01
 3  3  1    -1.5119751559e-01
 3  3  2     1.4737624199e-01
 3  3  3    -1.6653066133e-01

   23
0.0000000000e+00 0.0000000000e+00 0.0000000000e+00
-3.2699761980e+00 5.6637649120e+00 0.0000000000e+00
     1      1      3
 1  1  1    -9.6188420303e-02
 1  1  2     6.2784437638e-02
 1  1  3    -9.8666940816e-02
 1  2  1    -5.8781585723e-02
 1  2  2    -3.4721116361e-02
 1  2  3     3.2066582026e-02
 1  3  1     6.5412737960e-02
 1  3  2    -9.7491239889e-02
 1  3  3    -1.1195813848e-01
 2  1  1    -5.8781585723e-02
 2  1  2    -3.4721116361e-02
 2  1  3     3.2066582026e-02
 2  2  1     5.7020853277e-02
 2  2  2     7.5548377940e-02
 2  2  3    -2.0727049568e-02
 2  3  1     6.8773041254e-02
 2  3  2     6.5445050005e-02
 2  3  3    -1.1272313050e-01
 3  1  1     6.5412737960e-02
 3  1  2    -9.7491239889e-02
 3  1  3    -1.1195813848e-01
 3  2  1     6.8773041254e-02
 3  2  2     6.5445050005e-02
 3  2  3    -1.1272313050e-01
 3  3  1    -1.5119751559e-01
 3  3  2     1.4737624199e-01
 3  3  3     1.6653066133e-01

   24
0.0000000000e+00 0.0000000000e+00 0.0000000000e+00
-5.5511151231e-16 5.6637649120e+00 0.0000000000e+00
     1      1      1
 1  1  1     0.0000000000e+00
 1  1  2    -9.7609265982e-02
 1  1  3     0.0000000000e+00
 1  2  1    -1.9349021160e-01
 1  2  2     0.0000000000e+00
 1  2  3     0.0000000000e+00
 1  3  1     0.0000000000e+00
 1  3  2     0.0000000000e+00
 1  3  3     0.0000000000e+00
 2  1  1    -1.9349021160e-01
 2  1  2     0.0000000000e+00
 2  1  3     0.0000000000e+00
 2  2  1     0.0000000000e+00
 2  2  2     1.8350539502e-01
 2  2  3     0.0000000000e+00
 2  3  1     0.0000000000e+00
 2  3  2     0.0000000000e+00
 2  3  3     2.2580993459e-02
 3  1  1     0.0000000000e+00
 3  1  2     0.0000000000e+00
 3  1  3     0.0000000000e+00
 3  2  1     0.0000000000e+00
 3  2  2     0.0000000000e+00
 3  2  3     2.2580993459e-02
 3  3  1     0.0000000000e+00
 3  3  2    -2.8703858496e-02
 3  3  3     0.0000000000e+00

   25
0.0000000000e+00 0.0000000000e+00 0.0000000000e+00
0.0000000000e+00 5.6637649120e+00 0.0000000000e+00
     1      1      2
 1  1  1     9.6188420303e-02
 1  1  2     6.2784437638e-02
 1  1  3     9.8666940816e-02
 1  2  1    -5.8781585723e-02
 1  2  2     3.4721116361e-02
 1  2  3     3.2066582026e-02
 1  3  1    -6.5412737960e-02
 1  3  2    -9.7491239889e-02
 1  3  3     1.1195813848e-01
 2  1  1    -5.8781585723e-02
 2  1  2     3.4721116361e-02
 2  1  3     3.2066582026e-02
 2  2  1    -5.7020853277e-02
 2  2  2     7.5548377940e-02
 2  2  3     2.0727049568e-02
 2  3  1     6.8773041254e-02
 2  3  2    -6.5445050005e-02
 2  3  3    -1.1272313050e-01
 3  1  1    -6.5412737960e-02
 3  1  2    -9.7491239889e-02
 3  1  3     1.1195813848e-01
 3  2  1     6.8773041254e-02
 3  2  2    -6.5445050005e-02
 3  2  3    -1.1272313050e-01
 3  3  1     1.5119751559e-01
 3  3  2     1.4737624199e-01
 3  3  3    -1.6653066133e-01

   26
0.0000000000e+00 0.0000000000e+00 0.0000000000e+00
0.0000000000e+00 5.6637649120e+00 0.0000000000e+00
     1      1      3
 1  1  1     9.6188420303e-02
 1  1  2     6.2784437638e-02
 1  1  3    -9.8666940816e-02
 1  2  1    -5.8781585723e-02
 1  2  2     3.4721116361e-02
 1  2  3    -3.2066582026e-02
 1  3  1     6.5412737960e-02
 1  3  2     9.7491239889e-02
 1  3  3     1.1195813848e-01
 2  1  1    -5.8781585723e-02
 2  1  2     3.4721116361e-02
 2  1  3    -3.2066582026e-02
 2  2  1    -5.7020853277e-02
 2  2  2     7.5548377940e-02
 2  2  3    -2.0727049568e-02
 2  3  1    -6.8773041254e-02
 2  3  2     6.5445050005e-02
 2  3  3    -1.1272313050e-01
 3  1  1     6.5412737960e-02
 3  1  2     9.7491239889e-02
 3  1  3     1.1195813848e-01
 3  2  1    -6.8773041254e-02
 3  2  2     6.5445050005e-02
 3  2  3    -1.1272313050e-01
 3  3  1     1.5119751559e-01
 3  3  2     1.4737624199e-01
 3  3  3     1.6653066133e-01

   27
0.0000000000e+00 0.0000000000e+00 0.0000000000e+00
0.0000000000e+00 -5.6637649120e+00 0.0000000000e+00
     1      1      1
 1  1  1     0.0000000000e+00
 1  1  2    -2.3649218897e-01
 1  1  3     0.0000000000e+00
 1  2  1     5.4422027766e-02
 1  2  2     0.0000000000e+00
 1  2  3     0.0000000000e+00
 1  3  1     0.0000000000e+00
 1  3  2     0.0000000000e+00
 1  3  3     0.0000000000e+00
 2  1  1     5.4422027766e-02
 2  1  2     0.0000000000e+00
 2  1  3     0.0000000000e+00
 2  2  1     0.0000000000e+00
 2  2  2    -2.0213390220e-01
 2  2  3     0.0000000000e+00
 2  3  1     0.0000000000e+00
 2  3  2     0.0000000000e+00
 2  3  3     6.3323170964e-02
 3  1  1     0.0000000000e+00
 3  1  2     0.0000000000e+00
 3  1  3     0.0000000000e+00
 3  2  1     0.0000000000e+00
 3  2  2     0.0000000000e+00
 3  2  3     6.3323170964e-02
 3  3  1     0.0000000000e+00
 3  3  2     2.5850106412e-03
 3  3  3     0.0000000000e+00

   28
0.0000000000e+00 0.0000000000e+00 0.0000000000e+00
1.6349880990e+00 -2.8318824560e+00 0.0000000000e+00
     1      1      1
 1  1  1    -1.3179347328e+00
 1  1  2     7.0615028540e-01
 1  1  3     0.0000000000e+00
 1  2  1     2.4036788679e+00
 1  2  2    -1.7501959381e+00
 1  2  3     0.0000000000e+00
 1  3  1     0.0000000000e+00
 1  3  2     0.0000000000e+00
 1  3  3     6.4594036287e-01
 2  1  1     2.4036788679e+00
 2  1  2    -1.7501959381e+00
 2  1  3     0.0000000000e+00
 2  2  1    -3.2738952689e+00
 2  2  2     2.4586256345e+00
 2  2  3     0.0000000000e+00
 2  3  1     0.0000000000e+00
 2  3  2     0.0000000000e+00
 2  3  3     1.1414322567e+00
 3  1  1     0.0000000000e+00
 3  1  2     0.0000000000e+00
 3  1  3     6.4594036287e-01
 3  2  1     0.0000000000e+00
 3  2  2     0.0000000000e+00
 3  2  3     1.1414322567e+00
 3  3  1    -2.6354504577e-02
 3  3  2     1.5972324746e+00
 3  3  3     0.0000000000e+00

   29
0.0000000000e+00 0.0000000000e+00 0.0000000000e+00
1.6349880990e+00 -2.8318824560e+00 0.0000000000e+00
     1      1      2
 1  1  1     2.0528597342e-02
 1  1  2    -4.9019474580e-02
 1  1  3     1.2441547735e-02
 1  2  1    -6.7687339233e-02
 1  2  2    -7.1462897563e-02
 1  2  3     1.7715671859e-02
 1  3  1    -5.3001627247e-02
 1  3  2    -7.5938599362e-02
 1  3  3    -1.5360016389e-01
 2  1  1    -6.7687339233e-02
 2  1  2    -7.1462897563e-02
 2  1  3     1.7715671859e-02
 2  2  1     7.9687351677e-02
 2  2  2    -5.4067041185e-02
 2  2  3     1.0695244257e-01
 2  3  1     9.0325681781e-02
 2  3  2    -7.7856160707e-02
 2  3  3    -4.0597026793e-02
 3  1  1    -5.3001627247e-02
 3  1  2    -7.5938599362e-02
 3  1  3    -1.5360016389e-01
 3  2  1     9.0325681781e-02
 3  2  2    -7.7856160707e-02
 3  2  3    -4.0597026793e-02
 3  3  1     5.2032811733e-02
 3  3  2    -2.0462901043e-01
 3  3  3    -1.6653066133e-01

   30
0.0000000000e+00 0.0000000000e+00 0.0000000000e+00
1.6349880990e+00 -2.8318824560e+00 0.0000000000e+00
     1      1      3
 1  1  1     2.0528597342e-02
 1  1  2    -4.9019474580e-02
 1  1  3    -1.2441547735e-02
 1  2  1    -6.7687339233e-02
 1  2  2    -7.1462897563e-02
 1  2  3    -1.7715671859e-02
 1  3  1     5.3001627247e-02
 1  3  2     7.5938599362e-02
 1  3  3    -1.5360016389e-01
 2  1  1    -6.7687339233e-02
 2  1  2    -7.1462897563e-02
 2  1  3    -1.7715671859e-02
 2  2  1     7.9687351677e-02
 2  2  2    -5.4067041185e-02
 2  2  3    -1.0695244257e-01
 2  3  1    -9.0325681781e-02
 2  3  2     7.7856160707e-02
 2  3  3    -4.0597026793e-02
 3  1  1     5.3001627247e-02
 3  1  2     7.5938599362e-02
 3  1  3    -1.5360016389e-01
 3  2  1    -9.0325681781e-02
 3  2  2     7.7856160707e-02
 3  2  3    -4.0597026793e-02
 3  3  1     5.2032811733e-02
 3  3  2    -2.0462901043e-01
 3  3  3     1.6653066133e-01

   31
0.0000000000e+00 0.0000000000e+00 0.0000000000e+00
4.9049642970e+00 -2.8318824560e+00 0.0000000000e+00
     1      1      1
 1  1  1     1.4273505164e-02
 1  1  2    -2.0173102364e-01
 1  1  3     0.0000000000e+00
 1  2  1    -1.5379055084e-01
 1  2  2    -2.2920609818e-02
 1  2  3     0.0000000000e+00
 1  3  1     0.0000000000e+00
 1  3  2     0.0000000000e+00
 1  3  3     1.9555713987e-02
 2  1  1    -1.5379055084e-01
 2  1  2    -2.2920609818e-02
 2  1  3     0.0000000000e+00
 2  2  1     6.0114724788e-02
 2  2  2     1.5878295891e-01
 2  2  3     0.0000000000e+00
 2  3  1     0.0000000000e+00
 2  3  2     0.0000000000e+00
 2  3  3    -1.1290496730e-02
 3  1  1     0.0000000000e+00
 3  1  2     0.0000000000e+00
 3  1  3     1.9555713987e-02
 3  2  1     0.0000000000e+00
 3  2  2     0.0000000000e+00
 3  2  3    -1.1290496730e-02
 3  3  1    -2.4858270655e-02
 3  3  2     1.4351929248e-02
 3  3  3     0.0000000000e+00

   32
0.0000000000e+00 0.0000000000e+00 0.0000000000e+00
-4.9049642970e+00 -2.8318824560e+00 0.0000000000e+00
     1      1      1
 1  1  1    -1.4273505164e-02
 1  1  2    -2.0173102364e-01
 1  1  3     0.0000000000e+00
 1  2  1    -1.5379055084e-01
 1  2  2     2.2920609818e-02
 1  2  3     0.0000000000e+00
 1  3  1     0.0000000000e+00
 1  3  2     0.0000000000e+00
 1  3  3    -1.9555713987e-02
 2  1  1    -1.5379055084e-01
 2  1  2     2.2920609818e-02
 2  1  3     0.0000000000e+00
 2  2  1    -6.0114724788e-02
 2  2  2     1.5878295891e-01
 2  2  3     0.0000000000e+00
 2  3  1     0.0000000000e+00
 2  3  2     0.0000000000e+00
 2  3  3    -1.1290496730e-02
 3  1  1     0.0000000000e+00
 3  1  2     0.0000000000e+00
 3  1  3    -1.9555713987e-02
 3  2  1     0.0000000000e+00
 3  2  2     0.0000000000e+00