   0.79515E+00   0.14609E-04   0.12048E-04
   0.15903E+01   0.96042E-04   0.79225E-04
   0.23854E+01   0.32597E-03   0.26889E-03
   0.31806E+01   0.43695E-03   0.36019E-03
   0.39757E+01   0.72811E-03   0.59902E-03
   0.47709E+01   0.11575E-02   0.95104E-03
   0.55660E+01   0.12967E-02   0.10632E-02
   0.63612E+01   0.19486E-02   0.15924E-02
   0.71563E+01   0.24754E-02   0.20178E-02
   0.79515E+01   0.28552E-02   0.23185E-02
   0.87466E+01   0.38794E-02   0.31342E-02
   0.95418E+01   0.42574E-02   0.34235E-02
   0.10337E+02   0.52446E-02   0.41914E-02
   0.11132E+02   0.64519E-02   0.51228E-02
   0.11927E+02   0.68580E-02   0.54049E-02
   0.12722E+02   0.86258E-02   0.67366E-02
   0.13518E+02   0.94585E-02   0.73246E-02
   0.14313E+02   0.10788E-01   0.82695E-02
   0.15108E+02   0.12857E-01   0.97483E-02
   0.15903E+02   0.13398E-01   0.10035E-01
   0.16698E+02   0.16490E-01   0.12189E-01
   0.17493E+02   0.17439E-01   0.12735E-01
   0.18288E+02   0.20168E-01   0.14481E-01
   0.19084E+02   0.22979E-01   0.16247E-01
   0.19879E+02   0.24410E-01   0.16946E-01
   0.20674E+02   0.29733E-01   0.20261E-01
   0.21469E+02   0.30981E-01   0.20660E-01
   0.22264E+02   0.37445E-01   0.24354E-01
   0.23059E+02   0.40720E-01   0.25819E-01
   0.23854E+02   0.47730E-01   0.29358E-01
   0.24650E+02   0.55696E-01   0.33068E-01
   0.25445E+02   0.63524E-01   0.36213E-01
   0.26240E+02   0.77959E-01   0.42541E-01
   0.27035E+02   0.97421E-01   0.50335E-01
   0.27830E+02   0.10557E+00   0.49887E-01
   0.28625E+02   0.11687E+00   0.48559E-01
   0.29421E+02   0.13588E+00   0.46427E-01
   0.30216E+02   0.20236E+00   0.40411E-01
   0.31011E+02   0.12441E+00   0.31255E-01
   0.31806E+02   0.99392E-01   0.27238E-01
   0.32601E+02   0.88928E-01   0.26981E-01
   0.33396E+02   0.78152E-01   0.26479E-01
   0.34191E+02   0.73826E-01   0.92497E-01
   0.34987E+02   0.76632E-01   0.11487E+00
   0.35782E+02   0.77992E-01   0.11913E+00
   0.36577E+02   0.83208E-01   0.12730E+00
   0.37372E+02   0.88442E-01   0.12914E+00
   0.38167E+02   0.90897E-01   0.13479E+00
   0.38962E+02   0.10064E+00   0.14659E+00
   0.39757E+02   0.10785E+00   0.15235E+00
   0.40553E+02   0.11217E+00   0.16025E+00
   0.41348E+02   0.13601E+00   0.18169E+00
   0.42143E+02   0.15170E+00   0.18589E+00
   0.42938E+02   0.17411E+00   0.18398E+00
   0.43733E+02   0.17227E+00   0.15514E+00
   0.44528E+02   0.15401E+00   0.11977E+00
   0.45324E+02   0.59456E-01   0.86630E-01
   0.46119E+02   0.32282E-01   0.29153E-01
   0.46914E+02   0.27087E-01   0.35418E-01
   0.47709E+02   0.21131E-01   0.50668E-01
   0.48504E+02   0.19221E-01   0.58911E-01
   0.49299E+02   0.17268E-01   0.64852E-01
   0.50094E+02   0.16885E-01   0.66376E-01
   0.50890E+02   0.16965E-01   0.67480E-01
   0.51685E+02   0.16948E-01   0.52618E-01
   0.52480E+02   0.15086E-01   0.47083E-01
   0.53275E+02   0.14663E-01   0.42677E-01
   0.54070E+02   0.14759E-01   0.42817E-01
   0.54865E+02   0.15233E-01   0.37036E-01
   0.55660E+02   0.16740E-01   0.34232E-01
   0.56456E+02   0.16121E-01   0.29826E-01
   0.57251E+02   0.16567E-01   0.28214E-01
   0.58046E+02   0.16219E-01   0.26197E-01
   0.58841E+02   0.15619E-01   0.24032E-01
   0.59636E+02   0.15917E-01   0.23580E-01
   0.60431E+02   0.14534E-01   0.20895E-01
   0.61226E+02   0.15114E-01   0.21128E-01
   0.62022E+02   0.13537E-01   0.18532E-01
   0.62817E+02   0.13908E-01   0.18644E-01
   0.63612E+02   0.12433E-01   0.16424E-01
   0.64407E+02   0.12737E-01   0.16556E-01
   0.65202E+02   0.11156E-01   0.14331E-01
   0.65997E+02   0.10992E-01   0.13967E-01
   0.66793E+02   0.10348E-01   0.13013E-01
   0.67588E+02   0.89720E-02   0.11201E-01
   0.68383E+02   0.84473E-02   0.10469E-01
   0.69178E+02   0.78868E-02   0.97079E-02
   0.69973E+02   0.68404E-02   0.83750E-02
   0.70768E+02   0.53635E-02   0.65385E-02
   0.71563E+02   0.35682E-02   0.43338E-02
   0.72359E+02   0.55148E-03   0.66751E-03
   0.73154E+02   0.00000E+00   0.00000E+00
   0.73949E+02   0.00000E+00   0.00000E+00
   0.74744E+02   0.00000E+00   0.00000E+00
   0.75539E+02   0.00000E+00   0.00000E+00
   0.76334E+02   0.00000E+00   0.00000E+00
   0.77129E+02   0.00000E+00   0.00000E+00
   0.77925E+02   0.00000E+00   0.00000E+00
   0.78720E+02   0.00000E+00   0.00000E+00
   0.79515E+02   0.00000E+00   0.00000E+00
