  350

    1
0.0000000000e+00 0.0000000000e+00 0.0000000000e+00
0.0000000000e+00 0.0000000000e+00 0.0000000000e+00
     1      1      1
 1  1  1     0.0000000000e+00
 1  1  2     0.0000000000e+00
 1  1  3     0.0000000000e+00
 1  2  1     0.0000000000e+00
 1  2  2     0.0000000000e+00
 1  2  3     0.0000000000e+00
 1  3  1     0.0000000000e+00
 1  3  2     0.0000000000e+00
 1  3  3     0.0000000000e+00
 2  1  1     0.0000000000e+00
 2  1  2     0.0000000000e+00
 2  1  3     0.0000000000e+00
 2  2  1     0.0000000000e+00
 2  2  2     0.0000000000e+00
 2  2  3     0.0000000000e+00
 2  3  1     0.0000000000e+00
 2  3  2     0.0000000000e+00
 2  3  3     0.0000000000e+00
 3  1  1     0.0000000000e+00
 3  1  2     0.0000000000e+00
 3  1  3     0.0000000000e+00
 3  2  1     0.0000000000e+00
 3  2  2     0.0000000000e+00
 3  2  3     0.0000000000e+00
 3  3  1     0.0000000000e+00
 3  3  2     0.0000000000e+00
 3  3  3     0.0000000000e+00

    2
0.0000000000e+00 0.0000000000e+00 0.0000000000e+00
-2.3583496794e+00 0.0000000000e+00 2.3583496794e+00
     1      1      1
 1  1  1     5.0779289418e-02
 1  1  2     0.0000000000e+00
 1  1  3    -3.0413825828e-01
 1  2  1     0.0000000000e+00
 1  2  2    -1.2433900830e-01
 1  2  3     0.0000000000e+00
 1  3  1    -3.1494877906e-01
 1  3  2     0.0000000000e+00
 1  3  3     3.1494877906e-01
 2  1  1     0.0000000000e+00
 2  1  2    -1.2433900830e-01
 2  1  3     0.0000000000e+00
 2  2  1    -1.6588379519e-01
 2  2  2     0.0000000000e+00
 2  2  3     1.6588379519e-01
 2  3  1     0.0000000000e+00
 2  3  2     1.2433900830e-01
 2  3  3     0.0000000000e+00
 3  1  1    -3.1494877906e-01
 3  1  2     0.0000000000e+00
 3  1  3     3.1494877906e-01
 3  2  1     0.0000000000e+00
 3  2  2     1.2433900830e-01
 3  2  3     0.0000000000e+00
 3  3  1     3.0413825828e-01
 3  3  2     0.0000000000e+00
 3  3  3    -5.0779289418e-02

    3
0.0000000000e+00 0.0000000000e+00 0.0000000000e+00
2.3583496794e+00 0.0000000000e+00 -2.3583496794e+00
     1      1      1
 1  1  1    -5.0779289418e-02
 1  1  2     0.0000000000e+00
 1  1  3     3.0413825828e-01
 1  2  1     0.0000000000e+00
 1  2  2     1.2433900830e-01
 1  2  3     0.0000000000e+00
 1  3  1     3.1494877906e-01
 1  3  2     0.0000000000e+00
 1  3  3    -3.1494877906e-01
 2  1  1     0.0000000000e+00
 2  1  2     1.2433900830e-01
 2  1  3     0.0000000000e+00
 2  2  1     1.6588379519e-01
 2  2  2     0.0000000000e+00
 2  2  3    -1.6588379519e-01
 2  3  1     0.0000000000e+00
 2  3  2    -1.2433900830e-01
 2  3  3     0.0000000000e+00
 3  1  1     3.1494877906e-01
 3  1  2     0.0000000000e+00
 3  1  3    -3.1494877906e-01
 3  2  1     0.0000000000e+00
 3  2  2    -1.2433900830e-01
 3  2  3     0.0000000000e+00
 3  3  1    -3.0413825828e-01
 3  3  2     0.0000000000e+00
 3  3  3     5.0779289418e-02

    4
0.0000000000e+00 0.0000000000e+00 0.0000000000e+00
2.3583496794e+00 0.0000000000e+00 -2.3583496794e+00
     1      1      2
 1  1  1     0.0000000000e+00
 1  1  2     3.5151803076e-01
 1  1  3     0.0000000000e+00
 1  2  1     3.7793635400e-02
 1  2  2     0.0000000000e+00
 1  2  3     0.0000000000e+00
 1  3  1     0.0000000000e+00
 1  3  2     0.0000000000e+00
 1  3  3     0.0000000000e+00
 2  1  1     3.7793635400e-02
 2  1  2     0.0000000000e+00
 2  1  3     0.0000000000e+00
 2  2  1     0.0000000000e+00
 2  2  2    -7.2662048571e+00
 2  2  3     0.0000000000e+00
 2  3  1     0.0000000000e+00
 2  3  2     0.0000000000e+00
 2  3  3     3.7793635400e-02
 3  1  1     0.0000000000e+00
 3  1  2     0.0000000000e+00
 3  1  3     0.0000000000e+00
 3  2  1     0.0000000000e+00
 3  2  2     0.0000000000e+00
 3  2  3     3.7793635400e-02
 3  3  1     0.0000000000e+00
 3  3  2     3.5151803076e-01
 3  3  3     0.0000000000e+00

    5
0.0000000000e+00 0.0000000000e+00 0.0000000000e+00
0.0000000000e+00 2.3583496794e+00 2.3583496794e+00
     1      1      1
 1  1  1     0.0000000000e+00
 1  1  2     1.6588379519e-01
 1  1  3     1.6588379519e-01
 1  2  1     1.2433900830e-01
 1  2  2     0.0000000000e+00
 1  2  3     0.0000000000e+00
 1  3  1     1.2433900830e-01
 1  3  2     0.0000000000e+00
 1  3  3     0.0000000000e+00
 2  1  1     1.2433900830e-01
 2  1  2     0.0000000000e+00
 2  1  3     0.0000000000e+00
 2  2  1     0.0000000000e+00
 2  2  2    -5.0779289418e-02
 2  2  3    -3.0413825828e-01
 2  3  1     0.0000000000e+00
 2  3  2    -3.1494877906e-01
 2  3  3    -3.1494877906e-01
 3  1  1     1.2433900830e-01
 3  1  2     0.0000000000e+00
 3  1  3     0.0000000000e+00
 3  2  1     0.0000000000e+00
 3  2  2    -3.1494877906e-01
 3  2  3    -3.1494877906e-01
 3  3  1     0.0000000000e+00
 3  3  2    -3.0413825828e-01
 3  3  3    -5.0779289418e-02

    6
0.0000000000e+00 0.0000000000e+00 0.0000000000e+00
2.3583496794e+00 2.3583496794e+00 -3.1595187648e-16
     1      1      1
 1  1  1    -5.0779289418e-02
 1  1  2    -3.0413825828e-01
 1  1  3     0.0000000000e+00
 1  2  1    -3.1494877906e-01
 1  2  2    -3.1494877906e-01
 1  2  3     0.0000000000e+00
 1  3  1     0.0000000000e+00
 1  3  2     0.0000000000e+00
 1  3  3     1.2433900830e-01
 2  1  1    -3.1494877906e-01
 2  1  2    -3.1494877906e-01
 2  1  3     0.0000000000e+00
 2  2  1    -3.0413825828e-01
 2  2  2    -5.0779289418e-02
 2  2  3     0.0000000000e+00
 2  3  1     0.0000000000e+00
 2  3  2     0.0000000000e+00
 2  3  3     1.2433900830e-01
 3  1  1     0.0000000000e+00
 3  1  2     0.0000000000e+00
 3  1  3     1.2433900830e-01
 3  2  1     0.0000000000e+00
 3  2  2     0.0000000000e+00
 3  2  3     1.2433900830e-01
 3  3  1     1.6588379519e-01
 3  3  2     1.6588379519e-01
 3  3  3     0.0000000000e+00

    7
0.0000000000e+00 0.0000000000e+00 0.0000000000e+00
0.0000000000e+00 -2.3583496794e+00 -2.3583496794e+00
     1      1      1
 1  1  1     0.0000000000e+00
 1  1  2    -1.6588379519e-01
 1  1  3    -1.6588379519e-01
 1  2  1    -1.2433900830e-01
 1  2  2     0.0000000000e+00
 1  2  3     0.0000000000e+00
 1  3  1    -1.2433900830e-01
 1  3  2     0.0000000000e+00
 1  3  3     0.0000000000e+00
 2  1  1    -1.2433900830e-01
 2  1  2     0.0000000000e+00
 2  1  3     0.0000000000e+00
 2  2  1     0.0000000000e+00
 2  2  2     5.0779289418e-02
 2  2  3     3.0413825828e-01
 2  3  1     0.0000000000e+00
 2  3  2     3.1494877906e-01
 2  3  3     3.1494877906e-01
 3  1  1    -1.2433900830e-01
 3  1  2     0.0000000000e+00
 3  1  3     0.0000000000e+00
 3  2  1     0.0000000000e+00
 3  2  2     3.1494877906e-01
 3  2  3     3.1494877906e-01
 3  3  1     0.0000000000e+00
 3  3  2     3.0413825828e-01
 3  3  3     5.0779289418e-02

    8
0.0000000000e+00 0.0000000000e+00 0.0000000000e+00
0.0000000000e+00 -2.3583496794e+00 -2.3583496794e+00
     1      1      2
 1  1  1     7.2662048571e+00
 1  1  2     0.0000000000e+00
 1  1  3     0.0000000000e+00
 1  2  1     0.0000000000e+00
 1  2  2    -3.7793635400e-02
 1  2  3     0.0000000000e+00
 1  3  1     0.0000000000e+00
 1  3  2     0.0000000000e+00
 1  3  3    -3.7793635400e-02
 2  1  1     0.0000000000e+00
 2  1  2    -3.7793635400e-02
 2  1  3     0.0000000000e+00
 2  2  1    -3.5151803076e-01
 2  2  2     0.0000000000e+00
 2  2  3     0.0000000000e+00
 2  3  1     0.0000000000e+00
 2  3  2     0.0000000000e+00
 2  3  3     0.0000000000e+00
 3  1  1     0.0000000000e+00
 3  1  2     0.0000000000e+00
 3  1  3    -3.7793635400e-02
 3  2  1     0.0000000000e+00
 3  2  2     0.0000000000e+00
 3  2  3     0.0000000000e+00
 3  3  1    -3.5151803076e-01
 3  3  2     0.0000000000e+00
 3  3  3     0.0000000000e+00

    9
0.0000000000e+00 0.0000000000e+00 0.0000000000e+00
-2.3583496794e+00 -2.3583496794e+00 -3.5434799680e-16
     1      1      1
 1  1  1     5.0779289418e-02
 1  1  2     3.0413825828e-01
 1  1  3     0.0000000000e+00
 1  2  1     3.1494877906e-01
 1  2  2     3.1494877906e-01
 1  2  3     0.0000000000e+00
 1  3  1     0.0000000000e+00
 1  3  2     0.0000000000e+00
 1  3  3    -1.2433900830e-01
 2  1  1     3.1494877906e-01
 2  1  2     3.1494877906e-01
 2  1  3     0.0000000000e+00
 2  2  1     3.0413825828e-01
 2  2  2     5.0779289418e-02
 2  2  3     0.0000000000e+00
 2  3  1     0.0000000000e+00
 2  3  2     0.0000000000e+00
 2  3  3    -1.2433900830e-01
 3  1  1     0.0000000000e+00
 3  1  2     0.0000000000e+00
 3  1  3    -1.2433900830e-01
 3  2  1     0.0000000000e+00
 3  2  2     0.0000000000e+00
 3  2  3    -1.2433900830e-01
 3  3  1    -1.6588379519e-01
 3  3  2    -1.6588379519e-01
 3  3  3     0.0000000000e+00

   10
0.0000000000e+00 0.0000000000e+00 0.0000000000e+00
2.3583496794e+00 -2.3583496794e+00 -4.7166993588e+00
     1      1      2
 1  1  1     0.0000000000e+00
 1  1  2     0.0000000000e+00
 1  1  3    -3.5151803076e-01
 1  2  1     0.0000000000e+00
 1  2  2     0.0000000000e+00
 1  2  3     0.0000000000e+00
 1  3  1    -3.7793635400e-02
 1  3  2     0.0000000000e+00
 1  3  3     0.0000000000e+00
 2  1  1     0.0000000000e+00
 2  1  2     0.0000000000e+00
 2  1  3     0.0000000000e+00
 2  2  1     0.0000000000e+00
 2  2  2     0.0000000000e+00
 2  2  3    -3.5151803076e-01
 2  3  1     0.0000000000e+00
 2  3  2    -3.7793635400e-02
 2  3  3     0.0000000000e+00
 3  1  1    -3.7793635400e-02
 3  1  2     0.0000000000e+00
 3  1  3     0.0000000000e+00
 3  2  1     0.0000000000e+00
 3  2  2    -3.7793635400e-02
 3  2  3     0.0000000000e+00
 3  3  1     0.0000000000e+00
 3  3  2     0.0000000000e+00
 3  3  3     7.2662048571e+00

   11
0.0000000000e+00 0.0000000000e+00 0.0000000000e+00
-2.3583496794e+00 2.3583496794e+00 0.0000000000e+00
     1      1      1
 1  1  1     5.0779289418e-02
 1  1  2    -3.0413825828e-01
 1  1  3     0.0000000000e+00
 1  2  1    -3.1494877906e-01
 1  2  2     3.1494877906e-01
 1  2  3     0.0000000000e+00
 1  3  1     0.0000000000e+00
 1  3  2     0.0000000000e+00
 1  3  3    -1.2433900830e-01
 2  1  1    -3.1494877906e-01
 2  1  2     3.1494877906e-01
 2  1  3     0.0000000000e+00
 2  2  1     3.0413825828e-01
 2  2  2    -5.0779289418e-02
 2  2  3     0.0000000000e+00
 2  3  1     0.0000000000e+00
 2  3  2     0.0000000000e+00
 2  3  3     1.2433900830e-01
 3  1  1     0.0000000000e+00
 3  1  2     0.0000000000e+00
 3  1  3    -1.2433900830e-01
 3  2  1     0.0000000000e+00
 3  2  2     0.0000000000e+00
 3  2  3     1.2433900830e-01
 3  3  1    -1.6588379519e-01
 3  3  2     1.6588379519e-01
 3  3  3     0.0000000000e+00

   12
0.0000000000e+00 0.0000000000e+00 0.0000000000e+00
3.1595187648e-16 2.3583496794e+00 -2.3583496794e+00
     1      1      1
 1  1  1     0.0000000000e+00
 1  1  2     1.6588379519e-01
 1  1  3    -1.6588379519e-01
 1  2  1     1.2433900830e-01
 1  2  2     0.0000000000e+00
 1  2  3     0.0000000000e+00
 1  3  1    -1.2433900830e-01
 1  3  2     0.0000000000e+00
 1  3  3     0.0000000000e+00
 2  1  1     1.2433900830e-01
 2  1  2     0.0000000000e+00
 2  1  3     0.0000000000e+00
 2  2  1     0.0000000000e+00
 2  2  2    -5.0779289418e-02
 2  2  3     3.0413825828e-01
 2  3  1     0.0000000000e+00
 2  3  2     3.1494877906e-01
 2  3  3    -3.1494877906e-01
 3  1  1    -1.2433900830e-01
 3  1  2     0.0000000000e+00
 3  1  3     0.0000000000e+00
 3  2  1     0.0000000000e+00
 3  2  2     3.1494877906e-01
 3  2  3    -3.1494877906e-01
 3  3  1     0.0000000000e+00
 3  3  2    -3.0413825828e-01
 3  3  3     5.0779289418e-02

   13
0.0000000000e+00 0.0000000000e+00 0.0000000000e+00
-2.3583496794e+00 -3.1595187648e-16 -2.3583496794e+00
     1      1      1
 1  1  1     5.0779289418e-02
 1  1  2     0.0000000000e+00
 1  1  3     3.0413825828e-01
 1  2  1     0.0000000000e+00
 1  2  2    -1.2433900830e-01
 1  2  3     0.0000000000e+00
 1  3  1     3.1494877906e-01
 1  3  2     0.0000000000e+00
 1  3  3     3.1494877906e-01
 2  1  1     0.0000000000e+00
 2  1  2    -1.2433900830e-01
 2  1  3     0.0000000000e+00
 2  2  1    -1.6588379519e-01
 2  2  2     0.0000000000e+00
 2  2  3    -1.6588379519e-01
 2  3  1     0.0000000000e+00
 2  3  2    -1.2433900830e-01
 2  3  3     0.0000000000e+00
 3  1  1     3.1494877906e-01
 3  1  2     0.0000000000e+00
 3  1  3     3.1494877906e-01
 3  2  1     0.0000000000e+00
 3  2  2    -1.2433900830e-01
 3  2  3     0.0000000000e+00
 3  3  1     3.0413825828e-01
 3  3  2     0.0000000000e+00
 3  3  3     5.0779289418e-02

   14
0.0000000000e+00 0.0000000000e+00 0.0000000000e+00
2.3583496794e+00 -2.3583496794e+00 0.0000000000e+00
     1      1      1
 1  1  1    -5.0779289418e-02
 1  1  2     3.0413825828e-01
 1  1  3     0.0000000000e+00
 1  2  1     3.1494877906e-01
 1  2  2    -3.1494877906e-01
 1  2  3     0.0000000000e+00
 1  3  1     0.0000000000e+00
 1  3  2     0.0000000000e+00
 1  3  3     1.2433900830e-01
 2  1  1     3.1494877906e-01
 2  1  2    -3.1494877906e-01
 2  1  3     0.0000000000e+00
 2  2  1    -3.0413825828e-01
 2  2  2     5.0779289418e-02
 2  2  3     0.0000000000e+00
 2  3  1     0.0000000000e+00
 2  3  2     0.0000000000e+00
 2  3  3    -1.2433900830e-01
 3  1  1     0.0000000000e+00
 3  1  2     0.0000000000e+00
 3  1  3     1.2433900830e-01
 3  2  1     0.0000000000e+00
 3  2  2     0.0000000000e+00
 3  2  3    -1.2433900830e-01
 3  3  1     1.6588379519e-01
 3  3  2    -1.6588379519e-01
 3  3  3     0.0000000000e+00

   15
0.0000000000e+00 0.0000000000e+00 0.0000000000e+00
2.3583496794e+00 -2.3583496794e+00 0.0000000000e+00
     1      1      2
 1  1  1     0.0000000000e+00
 1  1  2     0.0000000000e+00
 1  1  3     3.5151803076e-01
 1  2  1     0.0000000000e+00
 1  2  2     0.0000000000e+00
 1  2  3     0.0000000000e+00
 1  3  1     3.7793635400e-02
 1  3  2     0.0000000000e+00
 1  3  3     0.0000000000e+00
 2  1  1     0.0000000000e+00
 2  1  2     0.0000000000e+00
 2  1  3     0.0000000000e+00
 2  2  1     0.0000000000e+00
 2  2  2     0.0000000000e+00
 2  2  3     3.5151803076e-01
 2  3  1     0.0000000000e+00
 2  3  2     3.7793635400e-02
 2  3  3     0.0000000000e+00
 3  1  1     3.7793635400e-02
 3  1  2     0.0000000000e+00
 3  1  3     0.0000000000e+00
 3  2  1     0.0000000000e+00
 3  2  2     3.7793635400e-02
 3  2  3     0.0000000000e+00
 3  3  1     0.0000000000e+00
 3  3  2     0.0000000000e+00
 3  3  3    -7.2662048571e+00

   16
0.0000000000e+00 0.0000000000e+00 0.0000000000e+00
3.5434799680e-16 -2.3583496794e+00 2.3583496794e+00
     1      1      1
 1  1  1     0.0000000000e+00
 1  1  2    -1.6588379519e-01
 1  1  3     1.6588379519e-01
 1  2  1    -1.2433900830e-01
 1  2  2     0.0000000000e+00
 1  2  3     0.0000000000e+00
 1  3  1     1.2433900830e-01
 1  3  2     0.0000000000e+00
 1  3  3     0.0000000000e+00
 2  1  1    -1.2433900830e-01
 2  1  2     0.0000000000e+00
 2  1  3     0.0000000000e+00
 2  2  1     0.0000000000e+00
 2  2  2     5.0779289418e-02
 2  2  3    -3.0413825828e-01
 2  3  1     0.0000000000e+00
 2  3  2    -3.1494877906e-01
 2  3  3     3.1494877906e-01
 3  1  1     1.2433900830e-01
 3  1  2     0.0000000000e+00
 3  1  3     0.0000000000e+00
 3  2  1     0.0000000000e+00
 3  2  2    -3.1494877906e-01
 3  2  3     3.1494877906e-01
 3  3  1     0.0000000000e+00
 3  3  2     3.0413825828e-01
 3  3  3    -5.0779289418e-02

   17
0.0000000000e+00 0.0000000000e+00 0.0000000000e+00
4.7166993588e+00 -2.3583496794e+00 -2.3583496794e+00
     1      1      2
 1  1  1    -7.2662048571e+00
 1  1  2     0.0000000000e+00
 1  1  3     0.0000000000e+00
 1  2  1     0.0000000000e+00
 1  2  2     3.7793635400e-02
 1  2  3     0.0000000000e+00
 1  3  1     0.0000000000e+00
 1  3  2     0.0000000000e+00
 1  3  3     3.7793635400e-02
 2  1  1     0.0000000000e+00
 2  1  2     3.7793635400e-02
 2  1  3     0.0000000000e+00
 2  2  1     3.5151803076e-01
 2  2  2     0.0000000000e+00
 2  2  3     0.0000000000e+00
 2  3  1     0.0000000000e+00
 2  3  2     0.0000000000e+00
 2  3  3     0.0000000000e+00
 3  1  1     0.0000000000e+00
 3  1  2     0.0000000000e+00
 3  1  3     3.7793635400e-02
 3  2  1     0.0000000000e+00
 3  2  2     0.0000000000e+00
 3  2  3     0.0000000000e+00
 3  3  1     3.5151803076e-01
 3  3  2     0.0000000000e+00
 3  3  3     0.0000000000e+00

   18
0.0000000000e+00 0.0000000000e+00 0.0000000000e+00
2.3583496794e+00 -3.5434799680e-16 2.3583496794e+00
     1      1      1
 1  1  1    -5.0779289418e-02
 1  1  2     0.0000000000e+00
 1  1  3    -3.0413825828e-01
 1  2  1     0.0000000000e+00
 1  2  2     1.2433900830e-01
 1  2  3     0.0000000000e+00
 1  3  1    -3.1494877906e-01
 1  3  2     0.0000000000e+00
 1  3  3    -3.1494877906e-01
 2  1  1     0.0000000000e+00
 2  1  2     1.2433900830e-01
 2  1  3     0.0000000000e+00
 2  2  1     1.6588379519e-01
 2  2  2     0.0000000000e+00
 2  2  3     1.6588379519e-01
 2  3  1     0.0000000000e+00
 2  3  2     1.2433900830e-01
 2  3  3     0.0000000000e+00
 3  1  1    -3.1494877906e-01
 3  1  2     0.0000000000e+00
 3  1  3    -3.1494877906e-01
 3  2  1     0.0000000000e+00
 3  2  2     1.2433900830e-01
 3  2  3     0.0000000000e+00
 3  3  1    -3.0413825828e-01
 3  3  2     0.0000000000e+00
 3  3  3    -5.0779289418e-02

   19
0.0000000000e+00 0.0000000000e+00 0.0000000000e+00
2.3583496794e+00 -4.7166993588e+00 -2.3583496794e+00
     1      1      2
 1  1  1     0.0000000000e+00
 1  1  2    -3.5151803076e-01
 1  1  3     0.0000000000e+00
 1  2  1    -3.7793635400e-02
 1  2  2     0.0000000000e+00
 1  2  3     0.0000000000e+00
 1  3  1     0.0000000000e+00
 1  3  2     0.0000000000e+00
 1  3  3     0.0000000000e+00
 2  1  1    -3.7793635400e-02
 2  1  2     0.0000000000e+00
 2  1  3     0.0000000000e+00
 2  2  1     0.0000000000e+00
 2  2  2     7.2662048571e+00
 2  2  3     0.0000000000e+00
 2  3  1     0.0000000000e+00
 2  3  2     0.0000000000e+00
 2  3  3    -3.7793635400e-02
 3  1  1     0.0000000000e+00
 3  1  2     0.0000000000e+00
 3  1  3     0.0000000000e+00
 3  2  1     0.0000000000e+00
 3  2  2     0.0000000000e+00
 3  2  3    -3.7793635400e-02
 3  3  1     0.0000000000e+00
 3  3  2    -3.5151803076e-01
 3  3  3     0.0000000000e+00

   20
-2.3583496794e+00 0.0000000000e+00 2.3583496794e+00
0.0000000000e+00 0.0000000000e+00 0.0000000000e+00
     1      1      1
 1  1  1     5.0779289418e-02
 1  1  2     0.0000000000e+00
 1  1  3    -3.1494877906e-01
 1  2  1     0.0000000000e+00
 1  2  2    -1.2433900830e-01
 1  2  3     0.0000000000e+00
 1  3  1    -3.0413825828e-01
 1  3  2     0.0000000000e+00
 1  3  3     3.1494877906e-01
 2  1  1     0.0000000000e+00
 2  1  2    -1.6588379519e-01
 2  1  3     0.0000000000e+00
 2  2  1    -1.2433900830e-01
 2  2  2     0.0000000000e+00
 2  2  3     1.2433900830e-01
 2  3  1     0.0000000000e+00
 2  3  2     1.6588379519e-01
 2  3  3     0.0000000000e+00
 3  1  1    -3.1494877906e-01
 3  1  2     0.0000000000e+00
 3  1  3     3.0413825828e-01
 3  2  1     0.0000000000e+00
 3  2  2     1.2433900830e-01
 3  2  3     0.0000000000e+00
 3  3  1     3.1494877906e-01
 3  3  2     0.0000000000e+00
 3  3  3    -5.0779289418e-02

   21
-2.3583496794e+00 0.0000000000e+00 2.3583496794e+00
-2.3583496794e+00 0.0000000000e+00 2.3583496794e+00
     1      1      1
 1  1  1    -5.0779289418e-02
 1  1  2     0.0000000000e+00
 1  1  3     3.1494877906e-01
 1  2  1     0.0000000000e+00
 1  2  2     1.6588379519e-01
 1  2  3     0.0000000000e+00
 1  3  1     3.1494877906e-01
 1  3  2     0.0000000000e+00
 1  3  3    -3.0413825828e-01
 2  1  1     0.0000000000e+00
 2  1  2     1.2433900830e-01
 2  1  3     0.0000000000e+00
 2  2  1     1.2433900830e-01
 2  2  2     0.0000000000e+00
 2  2  3    -1.2433900830e-01
 2  3  1     0.0000000000e+00
 2  3  2    -1.2433900830e-01
 2  3  3     0.0000000000e+00
 3  1  1     3.0413825828e-01
 3  1  2     0.0000000000e+00
 3  1  3    -3.1494877906e-01
 3  2  1     0.0000000000e+00
 3  2  2    -1.6588379519e-01
 3  2  3     0.0000000000e+00
 3  3  1    -3.1494877906e-01
 3  3  2     0.0000000000e+00
 3  3  3     5.0779289418e-02

   22
-2.3583496794e+00 0.0000000000e+00 2.3583496794e+00
0.0000000000e+00 2.3583496794e+00 2.3583496794e+00
     1      1      1
 1  1  1     6.8134236434e-02
 1  1  2     2.5876306285e-03
 1  1  3    -2.4653837041e-02
 1  2  1    -1.9285225181e-03
 1  2  2    -2.4653837041e-02
 1  2  3    -1.2855516308e-03
 1  3  1     1.9285225181e-03
 1  3  2     3.2138790771e-03
 1  3  3     1.9285225181e-03
 2  1  1     2.4653837041e-02
 2  1  2    -2.5876306285e-03
 2  1  3     3.2138790771e-03
 2  2  1     1.9285225181e-03
 2  2  2    -6.8134236434e-02
 2  2  3     1.9285225181e-03
 2  3  1    -1.2855516308e-03
 2  3  2    -2.4653837041e-02
 2  3  3    -1.9285225181e-03
 3  1  1    -2.5876306285e-03
 3  1  2     1.9283274463e-03
 3  1  3    -2.5876306285e-03
 3  2  1     3.2138790771e-03
 3  2  2    -2.5876306285e-03
 3  2  3     2.4653837041e-02
 3  3  1    -2.4653837041e-02
 3  3  2     2.5876306285e-03
 3  3  3     6.8134236434e-02

   23
-2.3583496794e+00 0.0000000000e+00 2.3583496794e+00
0.0000000000e+00 -2.3583496794e+00 -2.3583496794e+00
     1      1      2
 1  1  1     8.9986792155e-03
 1  1  2     0.0000000000e+00
 1  1  3     8.1544360817e-02
 1  2  1     0.0000000000e+00
 1  2  2    -1.5924042497e-02
 1  2  3     0.0000000000e+00
 1  3  1    -5.0315521168e-02
 1  3  2     0.0000000000e+00
 1  3  3    -5.0315521168e-02
 2  1  1     0.0000000000e+00
 2  1  2    -1.8511668426e-02
 2  1  3     0.0000000000e+00
 2  2  1    -2.2590275509e-02
 2  2  2     0.0000000000e+00
 2  2  3    -2.2590275509e-02
 2  3  1     0.0000000000e+00
 2  3  2    -1.5924042497e-02
 2  3  3     0.0000000000e+00
 3  1  1    -3.0472694102e-02
 3  1  2     0.0000000000e+00
 3  1  3    -3.0472694102e-02
 3  2  1     0.0000000000e+00
 3  2  2    -1.8511668426e-02
 3  2  3     0.0000000000e+00
 3  3  1     8.1544360817e-02
 3  3  2     0.0000000000e+00
 3  3  3     8.9986792155e-03

   24
-2.3583496794e+00 0.0000000000e+00 2.3583496794e+00
-2.3583496794e+00 -2.3583496794e+00 -3.5434799680e-16
     1      1      1
 1  1  1    -6.8134236434e-02
 1  1  2    -2.5876306285e-03
 1  1  3     2.4653837041e-02
 1  2  1    -2.4653837041e-02
 1  2  2     2.5876306285e-03
 1  2  3    -3.2138790771e-03
 1  3  1     2.5876306285e-03
 1  3  2    -1.9283274463e-03
 1  3  3     2.5876306285e-03
 2  1  1     1.9285225181e-03
 2  1  2     2.4653837041e-02
 2  1  3     1.2855516308e-03
 2  2  1    -1.9285225181e-03
 2  2  2     6.8134236434e-02
 2  2  3    -1.9285225181e-03
 2  3  1    -3.2138790771e-03
 2  3  2     2.5876306285e-03
 2  3  3    -2.4653837041e-02
 3  1  1    -1.9285225181e-03
 3  1  2    -3.2138790771e-03
 3  1  3    -1.9285225181e-03
 3  2  1     1.2855516308e-03
 3  2  2     2.4653837041e-02
 3  2  3     1.9285225181e-03
 3  3  1     2.4653837041e-02
 3  3  2    -2.5876306285e-03
 3  3  3    -6.8134236434e-02

   25
-2.3583496794e+00 0.0000000000e+00 2.3583496794e+00
-2.3583496794e+00 2.3583496794e+00 0.0000000000e+00
     1      1      1
 1  1  1    -6.8134236434e-02
 1  1  2     2.5876306285e-03
 1  1  3     2.4653837041e-02
 1  2  1     2.4653837041e-02
 1  2  2     2.5876306285e-03
 1  2  3     3.2138790771e-03
 1  3  1     2.5876306285e-03
 1  3  2     1.9283274463e-03
 1  3  3     2.5876306285e-03
 2  1  1    -1.9285225181e-03
 2  1  2     2.4653837041e-02
 2  1  3    -1.2855516308e-03
 2  2  1    -1.9285225181e-03
 2  2  2    -6.8134236434e-02
 2  2  3    -1.9285225181e-03
 2  3  1     3.2138790771e-03
 2  3  2     2.5876306285e-03
 2  3  3     2.4653837041e-02
 3  1  1    -1.9285225181e-03
 3  1  2     3.2138790771e-03
 3  1  3    -1.9285225181e-03
 3  2  1    -1.2855516308e-03
 3  2  2     2.4653837041e-02
 3  2  3    -1.9285225181e-03
 3  3  1     2.4653837041e-02
 3  3  2     2.5876306285e-03
 3  3  3    -6.8134236434e-02

   26
-2.3583496794e+00 0.0000000000e+00 2.3583496794e+00
2.3583496794e+00 -2.3583496794e+00 0.0000000000e+00
     1      1      2
 1  1  1    -8.9986792155e-03
 1  1  2     0.0000000000e+00
 1  1  3    -8.1544360817e-02
 1  2  1     0.0000000000e+00
 1  2  2     1.8511668426e-02
 1  2  3     0.0000000000e+00
 1  3  1     3.0472694102e-02
 1  3  2     0.0000000000e+00
 1  3  3     3.0472694102e-02
 2  1  1     0.0000000000e+00
 2  1  2     1.5924042497e-02
 2  1  3     0.0000000000e+00
 2  2  1     2.2590275509e-02
 2  2  2     0.0000000000e+00
 2  2  3     2.2590275509e-02
 2  3  1     0.0000000000e+00
 2  3  2     1.8511668426e-02
 2  3  3     0.0000000000e+00
 3  1  1     5.0315521168e-02
 3  1  2     0.0000000000e+00
 3  1  3     5.0315521168e-02
 3  2  1     0.0000000000e+00
 3  2  2     1.5924042497e-02
 3  2  3     0.0000000000e+00
 3  3  1    -8.1544360817e-02
 3  3  2     0.0000000000e+00
 3  3  3    -8.9986792155e-03

   27
-2.3583496794e+00 0.0000000000e+00 2.3583496794e+00
3.5434799680e-16 -2.3583496794e+00 2.3583496794e+00
     1      1      1
 1  1  1     6.8134236434e-02
 1  1  2    -2.5876306285e-03
 1  1  3    -2.4653837041e-02
 1  2  1     1.9285225181e-03
 1  2  2    -2.4653837041e-02
 1  2  3     1.2855516308e-03
 1  3  1     1.9285225181e-03
 1  3  2    -3.2138790771e-03
 1  3  3     1.9285225181e-03
 2  1  1    -2.4653837041e-02
 2  1  2    -2.5876306285e-03
 2  1  3    -3.2138790771e-03
 2  2  1     1.9285225181e-03
 2  2  2     6.8134236434e-02
 2  2  3     1.9285225181e-03
 2  3  1     1.2855516308e-03
 2  3  2    -2.4653837041e-02
 2  3  3     1.9285225181e-03
 3  1  1    -2.5876306285e-03
 3  1  2    -1.9283274463e-03
 3  1  3    -2.5876306285e-03
 3  2  1    -3.2138790771e-03
 3  2  2    -2.5876306285e-03
 3  2  3    -2.4653837041e-02
 3  3  1    -2.4653837041e-02
 3  3  2    -2.5876306285e-03
 3  3  3     6.8134236434e-02

   28
2.3583496794e+00 0.0000000000e+00 -2.3583496794e+00
0.0000000000e+00 0.0000000000e+00 0.0000000000e+00
     1      1      1
 1  1  1    -5.0779289418e-02
 1  1  2     0.0000000000e+00
 1  1  3     3.1494877906e-01
 1  2  1     0.0000000000e+00
 1  2  2     1.2433900830e-01
 1  2  3     0.0000000000e+00
 1  3  1     3.0413825828e-01
 1  3  2     0.0000000000e+00
 1  3  3    -3.1494877906e-01
 2  1  1     0.0000000000e+00
 2  1  2     1.6588379519e-01
 2  1  3     0.0000000000e+00
 2  2  1     1.2433900830e-01
 2  2  2     0.0000000000e+00
 2  2  3    -1.2433900830e-01
 2  3  1     0.0000000000e+00
 2  3  2    -1.6588379519e-01
 2  3  3     0.0000000000e+00
 3  1  1     3.1494877906e-01
 3  1  2     0.0000000000e+00
 3  1  3    -3.0413825828e-01
 3  2  1     0.0000000000e+00
 3  2  2    -1.2433900830e-01
 3  2  3     0.0000000000e+00
 3  3  1    -3.1494877906e-01
 3  3  2     0.0000000000e+00
 3  3  3     5.0779289418e-02

   29
2.3583496794e+00 0.0000000000e+00 -2.3583496794e+00
2.3583496794e+00 0.0000000000e+00 -2.3583496794e+00
     1      1      1
 1  1  1     5.0779289418e-02
 1  1  2     0.0000000000e+00
 1  1  3    -3.1494877906e-01
 1  2  1     0.0000000000e+00
 1  2  2    -1.6588379519e-01
 1  2  3     0.0000000000e+00
 1  3  1    -3.1494877906e-01
 1  3  2     0.0000000000e+00
 1  3  3     3.0413825828e-01
 2  1  1     0.0000000000e+00
 2  1  2    -1.2433900830e-01
 2  1  3     0.0000000000e+00
 2  2  1    -1.2433900830e-01
 2  2  2     0.0000000000e+00
 2  2  3     1.2433900830e-01
 2  3  1     0.0000000000e+00
 2  3  2     1.2433900830e-01
 2  3  3     0.0000000000e+00
 3  1  1    -3.0413825828e-01
 3  1  2     0.0000000000e+00
 3  1  3     3.1494877906e-01
 3  2  1     0.0000000000e+00
 3  2  2     1.6588379519e-01
 3  2  3     0.0000000000e+00
 3  3  1     3.1494877906e-01
 3  3  2     0.0000000000e+00
 3  3  3    -5.0779289418e-02

   30
2.3583496794e+00 0.0000000000e+00 -2.3583496794e+00
2.3583496794e+00 2.3583496794e+00 -3.1595187648e-16
     1      1      1
 1  1  1     6.8134236434e-02
 1  1  2     2.5876306285e-03
 1  1  3    -2.4653837041e-02
 1  2  1     2.4653837041e-02
 1  2  2    -2.5876306285e-03
 1  2  3     3.2138790771e-03
 1  3  1    -2.5876306285e-03
 1  3  2     1.9283274463e-03
 1  3  3    -2.5876306285e-03
 2  1  1    -1.9285225181e-03
 2  1  2    -2.4653837041e-02
 2  1  3    -1.2855516308e-03
 2  2  1     1.9285225181e-03
 2  2  2    -6.8134236434e-02
 2  2  3     1.9285225181e-03
 2  3  1     3.2138790771e-03
 2  3  2    -2.5876306285e-03
 2  3  3     2.4653837041e-02
 3  1  1     1.9285225181e-03
 3  1  2     3.2138790771e-03
 3  1  3     1.9285225181e-03
 3  2  1    -1.2855516308e-03
 3  2  2    -2.4653837041e-02
 3  2  3    -1.9285225181e-03
 3  3  1    -2.4653837041e-02
 3  3  2     2.5876306285e-03
 3  3  3     6.8134236434e-02

   31
2.3583496794e+00 0.0000000000e+00 -2.3583496794e+00
0.0000000000e+00 -2.3583496794e+00 -2.3583496794e+00
     1      1      1
 1  1  1    -6.8134236434e-02
 1  1  2    -2.5876306285e-03
 1  1  3     2.4653837041e-02
 1  2  1     1.9285225181e-03
 1  2  2     2.4653837041e-02
 1  2  3     1.2855516308e-03
 1  3  1    -1.9285225181e-03
 1  3  2    -3.2138790771e-03
 1  3  3    -1.9285225181e-03
 2  1  1    -2.4653837041e-02
 2  1  2     2.5876306285e-03
 2  1  3    -3.2138790771e-03
 2  2  1    -1.9285225181e-03
 2  2  2     6.8134236434e-02
 2  2  3    -1.9285225181e-03
 2  3  1     1.2855516308e-03
 2  3  2     2.4653837041e-02
 2  3  3     1.9285225181e-03
 3  1  1     2.5876306285e-03
 3  1  2    -1.9283274463e-03
 3  1  3     2.5876306285e-03
 3  2  1    -3.2138790771e-03
 3  2  2     2.5876306285e-03
 3  2  3    -2.4653837041e-02
 3  3  1     2.4653837041e-02
 3  3  2    -2.5876306285e-03
 3  3  3    -6.8134236434e-02

   32
2.3583496794e+00 0.0000000000e+00 -2.3583496794e+00
2.3583496794e+00 -2.3583496794e+00 -4.7166993588e+00
     1      1      2
 1  1  1     8.9986792155e-03
 1  1  2     0.0000000000e+00
 1  1  3     8.1544360817e-02
 1  2  1     0.0000000000e+00
 1  2  2    -1.8511668426e-02
 1  2  3     0.0000000000e+00
 1  3  1    -3.0472694102e-02
 1  3  2     0.0000000000e+00
 1  3  3    -3.0472694102e-02
 2  1  1     0.0000000000e+00
 2  1  2    -1.5924042497e-02
 2  1  3     0.0000000000e+00
 2  2  1    -2.2590275509e-02
 2  2  2     0.0000000000e+00
 2  2  3    -2.2590275509e-02
 2  3  1     0.0000000000e+00
 2  3  2    -1.8511668426e-02
 2  3  3     0.0000000000e+00
 3  1  1    -5.0315521168e-02
 3  1  2     0.0000000000e+00
 3  1  3    -5.0315521168e-02
 3  2  1     0.0000000000e+00