   0.17929E+01   0.54066E-03   0.23429E-04
   0.35859E+01   0.15890E-02   0.67273E-04
   0.53788E+01   0.29720E-02   0.12057E-03
   0.71718E+01   0.53875E-02   0.20707E-03
   0.89647E+01   0.84597E-02   0.29747E-03
   0.10758E+02   0.12260E-01   0.38387E-03
   0.12551E+02   0.16525E-01   0.44292E-03
   0.14344E+02   0.23056E-01   0.51525E-03
   0.16136E+02   0.32589E-01   0.57505E-03
   0.17929E+02   0.49397E-01   0.63666E-03
   0.19722E+02   0.79689E-01   0.68039E-03
   0.21515E+02   0.13909E+00   0.62450E-03
   0.23308E+02   0.18705E+00   0.52443E-03
   0.25101E+02   0.20366E+00   0.46660E-03
   0.26894E+02   0.15226E+00   0.39263E-03
   0.28687E+02   0.96809E-01   0.33073E-03
   0.30480E+02   0.89487E-01   0.35221E-03
   0.32273E+02   0.77952E-01   0.40907E-03
   0.34066E+02   0.48357E-01   0.47750E-03
   0.35859E+02   0.14429E+00   0.76050E-03
   0.37652E+02   0.12382E+00   0.58660E-03
   0.39445E+02   0.52609E-01   0.28518E-03
   0.41238E+02   0.34315E-01   0.17366E-03
   0.43031E+02   0.19693E-01   0.73858E-04
   0.44824E+02   0.69800E-02   0.63537E-05
   0.46617E+02   0.00000E+00   0.00000E+00
   0.48409E+02   0.00000E+00   0.00000E+00
   0.50202E+02   0.00000E+00   0.00000E+00
   0.51995E+02   0.00000E+00   0.00000E+00
   0.53788E+02   0.00000E+00   0.00000E+00
   0.55581E+02   0.00000E+00   0.00000E+00
   0.57374E+02   0.00000E+00   0.00000E+00
   0.59167E+02   0.00000E+00   0.00000E+00
   0.60960E+02   0.00000E+00   0.00000E+00
   0.62753E+02   0.00000E+00   0.00000E+00
   0.64546E+02   0.00000E+00   0.00000E+00
   0.66339E+02   0.00000E+00   0.00000E+00
   0.68132E+02   0.00000E+00   0.00000E+00
   0.69925E+02   0.00000E+00   0.00000E+00
   0.71718E+02   0.00000E+00   0.00000E+00
   0.73511E+02   0.00000E+00   0.00000E+00
   0.75304E+02   0.00000E+00   0.00000E+00
   0.77097E+02   0.00000E+00   0.00000E+00
   0.78890E+02   0.00000E+00   0.00000E+00
   0.80682E+02   0.00000E+00   0.00000E+00
   0.82475E+02   0.00000E+00   0.00000E+00
   0.84268E+02   0.00000E+00   0.00000E+00
   0.86061E+02   0.00000E+00   0.00000E+00
   0.87854E+02   0.80412E-06   0.19283E-04
   0.89647E+02   0.36636E-03   0.96026E-02
   0.91440E+02   0.41580E-03   0.13268E-01
   0.93233E+02   0.43079E-03   0.17178E-01
   0.95026E+02   0.40784E-03   0.20561E-01
   0.96819E+02   0.38870E-03   0.24877E-01
   0.98612E+02   0.36396E-03   0.29876E-01
   0.10040E+03   0.33096E-03   0.35606E-01
   0.10220E+03   0.31077E-03   0.46784E-01
   0.10399E+03   0.27486E-03   0.61483E-01
   0.10578E+03   0.24667E-03   0.61767E-01
   0.10758E+03   0.21971E-03   0.60671E-01
   0.10937E+03   0.19385E-03   0.59995E-01
   0.11116E+03   0.17617E-03   0.60053E-01
   0.11296E+03   0.15468E-03   0.58989E-01
   0.11475E+03   0.14202E-03   0.59362E-01
   0.11654E+03   0.12617E-03   0.58717E-01
   0.11833E+03   0.11624E-03   0.59573E-01
   0.12013E+03   0.10541E-03   0.59320E-01
   0.12192E+03   0.98122E-04   0.59890E-01
   0.12371E+03   0.65210E-04   0.44305E-01
   0.12551E+03   0.44114E-04   0.30932E-01
   0.12730E+03   0.35446E-04   0.31144E-01
   0.12909E+03   0.26803E-04   0.28948E-01
   0.13088E+03   0.21019E-04   0.27584E-01
   0.13268E+03   0.15969E-04   0.25390E-01
   0.13447E+03   0.12074E-04   0.22126E-01
   0.13626E+03   0.94227E-05   0.19634E-01
   0.13806E+03   0.68012E-05   0.14627E-01
   0.13985E+03   0.41077E-05   0.89625E-02
   0.14164E+03   0.25830E-05   0.48149E-02
   0.14344E+03   0.55541E-05   0.84906E-02
   0.14523E+03   0.13952E-04   0.16086E-01
   0.14702E+03   0.26517E-04   0.22753E-01
   0.14881E+03   0.42530E-04   0.28928E-01
   0.15061E+03   0.69385E-04   0.36246E-01
   0.15240E+03   0.11718E-03   0.45400E-01
   0.15419E+03   0.20820E-03   0.59265E-01
   0.15599E+03   0.33145E-03   0.66536E-01
   0.15778E+03   0.50617E-03   0.66789E-01
   0.15957E+03   0.80335E-03   0.72327E-01
   0.16136E+03   0.14805E-02   0.88708E-01
   0.16316E+03   0.41397E-05   0.24551E-03
   0.16495E+03   0.00000E+00   0.00000E+00
   0.16674E+03   0.00000E+00   0.00000E+00
   0.16854E+03   0.00000E+00   0.00000E+00
   0.17033E+03   0.00000E+00   0.00000E+00
   0.17212E+03   0.00000E+00   0.00000E+00
   0.17392E+03   0.00000E+00   0.00000E+00
   0.17571E+03   0.00000E+00   0.00000E+00
   0.17750E+03   0.00000E+00   0.00000E+00
   0.17929E+03   0.00000E+00   0.00000E+00
