  350

    1
0.0000000000e+00 0.0000000000e+00 0.0000000000e+00
0.0000000000e+00 0.0000000000e+00 0.0000000000e+00
     1      1      1
 1  1  1     0.0000000000e+00
 1  1  2     0.0000000000e+00
 1  1  3     0.0000000000e+00
 1  2  1     0.0000000000e+00
 1  2  2     0.0000000000e+00
 1  2  3     0.0000000000e+00
 1  3  1     0.0000000000e+00
 1  3  2     0.0000000000e+00
 1  3  3     0.0000000000e+00
 2  1  1     0.0000000000e+00
 2  1  2     0.0000000000e+00
 2  1  3     0.0000000000e+00
 2  2  1     0.0000000000e+00
 2  2  2     0.0000000000e+00
 2  2  3     0.0000000000e+00
 2  3  1     0.0000000000e+00
 2  3  2     0.0000000000e+00
 2  3  3     0.0000000000e+00
 3  1  1     0.0000000000e+00
 3  1  2     0.0000000000e+00
 3  1  3     0.0000000000e+00
 3  2  1     0.0000000000e+00
 3  2  2     0.0000000000e+00
 3  2  3     0.0000000000e+00
 3  3  1     0.0000000000e+00
 3  3  2     0.0000000000e+00
 3  3  3     0.0000000000e+00

    2
0.0000000000e+00 0.0000000000e+00 0.0000000000e+00
-2.3472316662e+00 0.0000000000e+00 2.3472316662e+00
     1      1      1
 1  1  1     1.6712171201e-01
 1  1  2     0.0000000000e+00
 1  1  3    -2.7364319497e-01
 1  2  1     0.0000000000e+00
 1  2  2    -1.1070050877e-01
 1  2  3     0.0000000000e+00
 1  3  1    -3.4191067821e-01
 1  3  2     0.0000000000e+00
 1  3  3     3.4191067821e-01
 2  1  1     0.0000000000e+00
 2  1  2    -1.1070050877e-01
 2  1  3     0.0000000000e+00
 2  2  1    -9.9296279580e-02
 2  2  2     0.0000000000e+00
 2  2  3     9.9296279580e-02
 2  3  1     0.0000000000e+00
 2  3  2     1.1070050877e-01
 2  3  3     0.0000000000e+00
 3  1  1    -3.4191067821e-01
 3  1  2     0.0000000000e+00
 3  1  3     3.4191067821e-01
 3  2  1     0.0000000000e+00
 3  2  2     1.1070050877e-01
 3  2  3     0.0000000000e+00
 3  3  1     2.7364319497e-01
 3  3  2     0.0000000000e+00
 3  3  3    -1.6712171201e-01

    3
0.0000000000e+00 0.0000000000e+00 0.0000000000e+00
2.3472316662e+00 0.0000000000e+00 -2.3472316662e+00
     1      1      1
 1  1  1    -1.6712171201e-01
 1  1  2     0.0000000000e+00
 1  1  3     2.7364319497e-01
 1  2  1     0.0000000000e+00
 1  2  2     1.1070050877e-01
 1  2  3     0.0000000000e+00
 1  3  1     3.4191067821e-01
 1  3  2     0.0000000000e+00
 1  3  3    -3.4191067821e-01
 2  1  1     0.0000000000e+00
 2  1  2     1.1070050877e-01
 2  1  3     0.0000000000e+00
 2  2  1     9.9296279580e-02
 2  2  2     0.0000000000e+00
 2  2  3    -9.9296279580e-02
 2  3  1     0.0000000000e+00
 2  3  2    -1.1070050877e-01
 2  3  3     0.0000000000e+00
 3  1  1     3.4191067821e-01
 3  1  2     0.0000000000e+00
 3  1  3    -3.4191067821e-01
 3  2  1     0.0000000000e+00
 3  2  2    -1.1070050877e-01
 3  2  3     0.0000000000e+00
 3  3  1    -2.7364319497e-01
 3  3  2     0.0000000000e+00
 3  3  3     1.6712171201e-01

    4
0.0000000000e+00 0.0000000000e+00 0.0000000000e+00
2.3472316662e+00 0.0000000000e+00 -2.3472316662e+00
     1      1      2
 1  1  1     0.0000000000e+00
 1  1  2     1.6966513458e-01
 1  1  3     0.0000000000e+00
 1  2  1     5.0422618836e-03
 1  2  2     0.0000000000e+00
 1  2  3     0.0000000000e+00
 1  3  1     0.0000000000e+00
 1  3  2     0.0000000000e+00
 1  3  3     0.0000000000e+00
 2  1  1     5.0422618836e-03
 2  1  2     0.0000000000e+00
 2  1  3     0.0000000000e+00
 2  2  1     0.0000000000e+00
 2  2  2    -3.1911815991e+00
 2  2  3     0.0000000000e+00
 2  3  1     0.0000000000e+00
 2  3  2     0.0000000000e+00
 2  3  3     5.0422618836e-03
 3  1  1     0.0000000000e+00
 3  1  2     0.0000000000e+00
 3  1  3     0.0000000000e+00
 3  2  1     0.0000000000e+00
 3  2  2     0.0000000000e+00
 3  2  3     5.0422618836e-03
 3  3  1     0.0000000000e+00
 3  3  2     1.6966513458e-01
 3  3  3     0.0000000000e+00

    5
0.0000000000e+00 0.0000000000e+00 0.0000000000e+00
0.0000000000e+00 2.3472316662e+00 2.3472316662e+00
     1      1      1
 1  1  1     0.0000000000e+00
 1  1  2     9.9296279580e-02
 1  1  3     9.9296279580e-02
 1  2  1     1.1070050877e-01
 1  2  2     0.0000000000e+00
 1  2  3     0.0000000000e+00
 1  3  1     1.1070050877e-01
 1  3  2     0.0000000000e+00
 1  3  3     0.0000000000e+00
 2  1  1     1.1070050877e-01
 2  1  2     0.0000000000e+00
 2  1  3     0.0000000000e+00
 2  2  1     0.0000000000e+00
 2  2  2    -1.6712171201e-01
 2  2  3    -2.7364319497e-01
 2  3  1     0.0000000000e+00
 2  3  2    -3.4191067821e-01
 2  3  3    -3.4191067821e-01
 3  1  1     1.1070050877e-01
 3  1  2     0.0000000000e+00
 3  1  3     0.0000000000e+00
 3  2  1     0.0000000000e+00
 3  2  2    -3.4191067821e-01
 3  2  3    -3.4191067821e-01
 3  3  1     0.0000000000e+00
 3  3  2    -2.7364319497e-01
 3  3  3    -1.6712171201e-01

    6
0.0000000000e+00 0.0000000000e+00 0.0000000000e+00
2.3472316662e+00 2.3472316662e+00 -5.0037187354e-16
     1      1      1
 1  1  1    -1.6712171201e-01
 1  1  2    -2.7364319497e-01
 1  1  3     0.0000000000e+00
 1  2  1    -3.4191067821e-01
 1  2  2    -3.4191067821e-01
 1  2  3     0.0000000000e+00
 1  3  1     0.0000000000e+00
 1  3  2     0.0000000000e+00
 1  3  3     1.1070050877e-01
 2  1  1    -3.4191067821e-01
 2  1  2    -3.4191067821e-01
 2  1  3     0.0000000000e+00
 2  2  1    -2.7364319497e-01
 2  2  2    -1.6712171201e-01
 2  2  3     0.0000000000e+00
 2  3  1     0.0000000000e+00
 2  3  2     0.0000000000e+00
 2  3  3     1.1070050877e-01
 3  1  1     0.0000000000e+00
 3  1  2     0.0000000000e+00
 3  1  3     1.1070050877e-01
 3  2  1     0.0000000000e+00
 3  2  2     0.0000000000e+00
 3  2  3     1.1070050877e-01
 3  3  1     9.9296279580e-02
 3  3  2     9.9296279580e-02
 3  3  3     0.0000000000e+00

    7
0.0000000000e+00 0.0000000000e+00 0.0000000000e+00
0.0000000000e+00 -2.3472316662e+00 -2.3472316662e+00
     1      1      1
 1  1  1     0.0000000000e+00
 1  1  2    -9.9296279580e-02
 1  1  3    -9.9296279580e-02
 1  2  1    -1.1070050877e-01
 1  2  2     0.0000000000e+00
 1  2  3     0.0000000000e+00
 1  3  1    -1.1070050877e-01
 1  3  2     0.0000000000e+00
 1  3  3     0.0000000000e+00
 2  1  1    -1.1070050877e-01
 2  1  2     0.0000000000e+00
 2  1  3     0.0000000000e+00
 2  2  1     0.0000000000e+00
 2  2  2     1.6712171201e-01
 2  2  3     2.7364319497e-01
 2  3  1     0.0000000000e+00
 2  3  2     3.4191067821e-01
 2  3  3     3.4191067821e-01
 3  1  1    -1.1070050877e-01
 3  1  2     0.0000000000e+00
 3  1  3     0.0000000000e+00
 3  2  1     0.0000000000e+00
 3  2  2     3.4191067821e-01
 3  2  3     3.4191067821e-01
 3  3  1     0.0000000000e+00
 3  3  2     2.7364319497e-01
 3  3  3     1.6712171201e-01

    8
0.0000000000e+00 0.0000000000e+00 0.0000000000e+00
0.0000000000e+00 -2.3472316662e+00 -2.3472316662e+00
     1      1      2
 1  1  1     3.1911815991e+00
 1  1  2     0.0000000000e+00
 1  1  3     0.0000000000e+00
 1  2  1     0.0000000000e+00
 1  2  2    -5.0422618836e-03
 1  2  3     0.0000000000e+00
 1  3  1     0.0000000000e+00
 1  3  2     0.0000000000e+00
 1  3  3    -5.0422618836e-03
 2  1  1     0.0000000000e+00
 2  1  2    -5.0422618836e-03
 2  1  3     0.0000000000e+00
 2  2  1    -1.6966513458e-01
 2  2  2     0.0000000000e+00
 2  2  3     0.0000000000e+00
 2  3  1     0.0000000000e+00
 2  3  2     0.0000000000e+00
 2  3  3     0.0000000000e+00
 3  1  1     0.0000000000e+00
 3  1  2     0.0000000000e+00
 3  1  3    -5.0422618836e-03
 3  2  1     0.0000000000e+00
 3  2  2     0.0000000000e+00
 3  2  3     0.0000000000e+00
 3  3  1    -1.6966513458e-01
 3  3  2     0.0000000000e+00
 3  3  3     0.0000000000e+00

    9
0.0000000000e+00 0.0000000000e+00 0.0000000000e+00
-2.3472316662e+00 -2.3472316662e+00 -4.4563223476e-16
     1      1      1
 1  1  1     1.6712171201e-01
 1  1  2     2.7364319497e-01
 1  1  3     0.0000000000e+00
 1  2  1     3.4191067821e-01
 1  2  2     3.4191067821e-01
 1  2  3     0.0000000000e+00
 1  3  1     0.0000000000e+00
 1  3  2     0.0000000000e+00
 1  3  3    -1.1070050877e-01
 2  1  1     3.4191067821e-01
 2  1  2     3.4191067821e-01
 2  1  3     0.0000000000e+00
 2  2  1     2.7364319497e-01
 2  2  2     1.6712171201e-01
 2  2  3     0.0000000000e+00
 2  3  1     0.0000000000e+00
 2  3  2     0.0000000000e+00
 2  3  3    -1.1070050877e-01
 3  1  1     0.0000000000e+00
 3  1  2     0.0000000000e+00
 3  1  3    -1.1070050877e-01
 3  2  1     0.0000000000e+00
 3  2  2     0.0000000000e+00
 3  2  3    -1.1070050877e-01
 3  3  1    -9.9296279580e-02
 3  3  2    -9.9296279580e-02
 3  3  3     0.0000000000e+00

   10
0.0000000000e+00 0.0000000000e+00 0.0000000000e+00
2.3472316662e+00 -2.3472316662e+00 -4.6944633324e+00
     1      1      2
 1  1  1     0.0000000000e+00
 1  1  2     0.0000000000e+00
 1  1  3    -1.6966513458e-01
 1  2  1     0.0000000000e+00
 1  2  2     0.0000000000e+00
 1  2  3     0.0000000000e+00
 1  3  1    -5.0422618836e-03
 1  3  2     0.0000000000e+00
 1  3  3     0.0000000000e+00
 2  1  1     0.0000000000e+00
 2  1  2     0.0000000000e+00
 2  1  3     0.0000000000e+00
 2  2  1     0.0000000000e+00
 2  2  2     0.0000000000e+00
 2  2  3    -1.6966513458e-01
 2  3  1     0.0000000000e+00
 2  3  2    -5.0422618836e-03
 2  3  3     0.0000000000e+00
 3  1  1    -5.0422618836e-03
 3  1  2     0.0000000000e+00
 3  1  3     0.0000000000e+00
 3  2  1     0.0000000000e+00
 3  2  2    -5.0422618836e-03
 3  2  3     0.0000000000e+00
 3  3  1     0.0000000000e+00
 3  3  2     0.0000000000e+00
 3  3  3     3.1911815991e+00

   11
0.0000000000e+00 0.0000000000e+00 0.0000000000e+00
-2.3472316662e+00 2.3472316662e+00 0.0000000000e+00
     1      1      1
 1  1  1     1.6712171201e-01
 1  1  2    -2.7364319497e-01
 1  1  3     0.0000000000e+00
 1  2  1    -3.4191067821e-01
 1  2  2     3.4191067821e-01
 1  2  3     0.0000000000e+00
 1  3  1     0.0000000000e+00
 1  3  2     0.0000000000e+00
 1  3  3    -1.1070050877e-01
 2  1  1    -3.4191067821e-01
 2  1  2     3.4191067821e-01
 2  1  3     0.0000000000e+00
 2  2  1     2.7364319497e-01
 2  2  2    -1.6712171201e-01
 2  2  3     0.0000000000e+00
 2  3  1     0.0000000000e+00
 2  3  2     0.0000000000e+00
 2  3  3     1.1070050877e-01
 3  1  1     0.0000000000e+00
 3  1  2     0.0000000000e+00
 3  1  3    -1.1070050877e-01
 3  2  1     0.0000000000e+00
 3  2  2     0.0000000000e+00
 3  2  3     1.1070050877e-01
 3  3  1    -9.9296279580e-02
 3  3  2     9.9296279580e-02
 3  3  3     0.0000000000e+00

   12
0.0000000000e+00 0.0000000000e+00 0.0000000000e+00
5.0037187354e-16 2.3472316662e+00 -2.3472316662e+00
     1      1      1
 1  1  1     0.0000000000e+00
 1  1  2     9.9296279580e-02
 1  1  3    -9.9296279580e-02
 1  2  1     1.1070050877e-01
 1  2  2     0.0000000000e+00
 1  2  3     0.0000000000e+00
 1  3  1    -1.1070050877e-01
 1  3  2     0.0000000000e+00
 1  3  3     0.0000000000e+00
 2  1  1     1.1070050877e-01
 2  1  2     0.0000000000e+00
 2  1  3     0.0000000000e+00
 2  2  1     0.0000000000e+00
 2  2  2    -1.6712171201e-01
 2  2  3     2.7364319497e-01
 2  3  1     0.0000000000e+00
 2  3  2     3.4191067821e-01
 2  3  3    -3.4191067821e-01
 3  1  1    -1.1070050877e-01
 3  1  2     0.0000000000e+00
 3  1  3     0.0000000000e+00
 3  2  1     0.0000000000e+00
 3  2  2     3.4191067821e-01
 3  2  3    -3.4191067821e-01
 3  3  1     0.0000000000e+00
 3  3  2    -2.7364319497e-01
 3  3  3     1.6712171201e-01

   13
0.0000000000e+00 0.0000000000e+00 0.0000000000e+00
-2.3472316662e+00 -5.0037187354e-16 -2.3472316662e+00
     1      1      1
 1  1  1     1.6712171201e-01
 1  1  2     0.0000000000e+00
 1  1  3     2.7364319497e-01
 1  2  1     0.0000000000e+00
 1  2  2    -1.1070050877e-01
 1  2  3     0.0000000000e+00
 1  3  1     3.4191067821e-01
 1  3  2     0.0000000000e+00
 1  3  3     3.4191067821e-01
 2  1  1     0.0000000000e+00
 2  1  2    -1.1070050877e-01
 2  1  3     0.0000000000e+00
 2  2  1    -9.9296279580e-02
 2  2  2     0.0000000000e+00
 2  2  3    -9.9296279580e-02
 2  3  1     0.0000000000e+00
 2  3  2    -1.1070050877e-01
 2  3  3     0.0000000000e+00
 3  1  1     3.4191067821e-01
 3  1  2     0.0000000000e+00
 3  1  3     3.4191067821e-01
 3  2  1     0.0000000000e+00
 3  2  2    -1.1070050877e-01
 3  2  3     0.0000000000e+00
 3  3  1     2.7364319497e-01
 3  3  2     0.0000000000e+00
 3  3  3     1.6712171201e-01

   14
0.0000000000e+00 0.0000000000e+00 0.0000000000e+00
2.3472316662e+00 -2.3472316662e+00 0.0000000000e+00
     1      1      1
 1  1  1    -1.6712171201e-01
 1  1  2     2.7364319497e-01
 1  1  3     0.0000000000e+00
 1  2  1     3.4191067821e-01
 1  2  2    -3.4191067821e-01
 1  2  3     0.0000000000e+00
 1  3  1     0.0000000000e+00
 1  3  2     0.0000000000e+00
 1  3  3     1.1070050877e-01
 2  1  1     3.4191067821e-01
 2  1  2    -3.4191067821e-01
 2  1  3     0.0000000000e+00
 2  2  1    -2.7364319497e-01
 2  2  2     1.6712171201e-01
 2  2  3     0.0000000000e+00
 2  3  1     0.0000000000e+00
 2  3  2     0.0000000000e+00
 2  3  3    -1.1070050877e-01
 3  1  1     0.0000000000e+00
 3  1  2     0.0000000000e+00
 3  1  3     1.1070050877e-01
 3  2  1     0.0000000000e+00
 3  2  2     0.0000000000e+00
 3  2  3    -1.1070050877e-01
 3  3  1     9.9296279580e-02
 3  3  2    -9.9296279580e-02
 3  3  3     0.0000000000e+00

   15
0.0000000000e+00 0.0000000000e+00 0.0000000000e+00
2.3472316662e+00 -2.3472316662e+00 0.0000000000e+00
     1      1      2
 1  1  1     0.0000000000e+00
 1  1  2     0.0000000000e+00
 1  1  3     1.6966513458e-01
 1  2  1     0.0000000000e+00
 1  2  2     0.0000000000e+00
 1  2  3     0.0000000000e+00
 1  3  1     5.0422618836e-03
 1  3  2     0.0000000000e+00
 1  3  3     0.0000000000e+00
 2  1  1     0.0000000000e+00
 2  1  2     0.0000000000e+00
 2  1  3     0.0000000000e+00
 2  2  1     0.0000000000e+00
 2  2  2     0.0000000000e+00
 2  2  3     1.6966513458e-01
 2  3  1     0.0000000000e+00
 2  3  2     5.0422618836e-03
 2  3  3     0.0000000000e+00
 3  1  1     5.0422618836e-03
 3  1  2     0.0000000000e+00
 3  1  3     0.0000000000e+00
 3  2  1     0.0000000000e+00
 3  2  2     5.0422618836e-03
 3  2  3     0.0000000000e+00
 3  3  1     0.0000000000e+00
 3  3  2     0.0000000000e+00
 3  3  3    -3.1911815991e+00

   16
0.0000000000e+00 0.0000000000e+00 0.0000000000e+00
4.4563223476e-16 -2.3472316662e+00 2.3472316662e+00
     1      1      1
 1  1  1     0.0000000000e+00
 1  1  2    -9.9296279580e-02
 1  1  3     9.9296279580e-02
 1  2  1    -1.1070050877e-01
 1  2  2     0.0000000000e+00
 1  2  3     0.0000000000e+00
 1  3  1     1.1070050877e-01
 1  3  2     0.0000000000e+00
 1  3  3     0.0000000000e+00
 2  1  1    -1.1070050877e-01
 2  1  2     0.0000000000e+00
 2  1  3     0.0000000000e+00
 2  2  1     0.0000000000e+00
 2  2  2     1.6712171201e-01
 2  2  3    -2.7364319497e-01
 2  3  1     0.0000000000e+00
 2  3  2    -3.4191067821e-01
 2  3  3     3.4191067821e-01
 3  1  1     1.1070050877e-01
 3  1  2     0.0000000000e+00
 3  1  3     0.0000000000e+00
 3  2  1     0.0000000000e+00
 3  2  2    -3.4191067821e-01
 3  2  3     3.4191067821e-01
 3  3  1     0.0000000000e+00
 3  3  2     2.7364319497e-01
 3  3  3    -1.6712171201e-01

   17
0.0000000000e+00 0.0000000000e+00 0.0000000000e+00
4.6944633324e+00 -2.3472316662e+00 -2.3472316662e+00
     1      1      2
 1  1  1    -3.1911815991e+00
 1  1  2     0.0000000000e+00
 1  1  3     0.0000000000e+00
 1  2  1     0.0000000000e+00
 1  2  2     5.0422618836e-03
 1  2  3     0.0000000000e+00
 1  3  1     0.0000000000e+00
 1  3  2     0.0000000000e+00
 1  3  3     5.0422618836e-03
 2  1  1     0.0000000000e+00
 2  1  2     5.0422618836e-03
 2  1  3     0.0000000000e+00
 2  2  1     1.6966513458e-01
 2  2  2     0.0000000000e+00
 2  2  3     0.0000000000e+00
 2  3  1     0.0000000000e+00
 2  3  2     0.0000000000e+00
 2  3  3     0.0000000000e+00
 3  1  1     0.0000000000e+00
 3  1  2     0.0000000000e+00
 3  1  3     5.0422618836e-03
 3  2  1     0.0000000000e+00
 3  2  2     0.0000000000e+00
 3  2  3     0.0000000000e+00
 3  3  1     1.6966513458e-01
 3  3  2     0.0000000000e+00
 3  3  3     0.0000000000e+00

   18
0.0000000000e+00 0.0000000000e+00 0.0000000000e+00
2.3472316662e+00 -4.4563223476e-16 2.3472316662e+00
     1      1      1
 1  1  1    -1.6712171201e-01
 1  1  2     0.0000000000e+00
 1  1  3    -2.7364319497e-01
 1  2  1     0.0000000000e+00
 1  2  2     1.1070050877e-01
 1  2  3     0.0000000000e+00
 1  3  1    -3.4191067821e-01
 1  3  2     0.0000000000e+00
 1  3  3    -3.4191067821e-01
 2  1  1     0.0000000000e+00
 2  1  2     1.1070050877e-01
 2  1  3     0.0000000000e+00
 2  2  1     9.9296279580e-02
 2  2  2     0.0000000000e+00
 2  2  3     9.9296279580e-02
 2  3  1     0.0000000000e+00
 2  3  2     1.1070050877e-01
 2  3  3     0.0000000000e+00
 3  1  1    -3.4191067821e-01
 3  1  2     0.0000000000e+00
 3  1  3    -3.4191067821e-01
 3  2  1     0.0000000000e+00
 3  2  2     1.1070050877e-01
 3  2  3     0.0000000000e+00
 3  3  1    -2.7364319497e-01
 3  3  2     0.0000000000e+00
 3  3  3    -1.6712171201e-01

   19
0.0000000000e+00 0.0000000000e+00 0.0000000000e+00
2.3472316662e+00 -4.6944633324e+00 -2.3472316662e+00
     1      1      2
 1  1  1     0.0000000000e+00
 1  1  2    -1.6966513458e-01
 1  1  3     0.0000000000e+00
 1  2  1    -5.0422618836e-03
 1  2  2     0.0000000000e+00
 1  2  3     0.0000000000e+00
 1  3  1     0.0000000000e+00
 1  3  2     0.0000000000e+00
 1  3  3     0.0000000000e+00
 2  1  1    -5.0422618836e-03
 2  1  2     0.0000000000e+00
 2  1  3     0.0000000000e+00
 2  2  1     0.0000000000e+00
 2  2  2     3.1911815991e+00
 2  2  3     0.0000000000e+00
 2  3  1     0.0000000000e+00
 2  3  2     0.0000000000e+00
 2  3  3    -5.0422618836e-03
 3  1  1     0.0000000000e+00
 3  1  2     0.0000000000e+00
 3  1  3     0.0000000000e+00
 3  2  1     0.0000000000e+00
 3  2  2     0.0000000000e+00
 3  2  3    -5.0422618836e-03
 3  3  1     0.0000000000e+00
 3  3  2    -1.6966513458e-01
 3  3  3     0.0000000000e+00

   20
-2.3472316662e+00 0.0000000000e+00 2.3472316662e+00
0.0000000000e+00 0.0000000000e+00 0.0000000000e+00
     1      1      1
 1  1  1     1.6712171201e-01
 1  1  2     0.0000000000e+00
 1  1  3    -3.4191067821e-01
 1  2  1     0.0000000000e+00
 1  2  2    -1.1070050877e-01
 1  2  3     0.0000000000e+00
 1  3  1    -2.7364319497e-01
 1  3  2     0.0000000000e+00
 1  3  3     3.4191067821e-01
 2  1  1     0.0000000000e+00
 2  1  2    -9.9296279580e-02
 2  1  3     0.0000000000e+00
 2  2  1    -1.1070050877e-01
 2  2  2     0.0000000000e+00
 2  2  3     1.1070050877e-01
 2  3  1     0.0000000000e+00
 2  3  2     9.9296279580e-02
 2  3  3     0.0000000000e+00
 3  1  1    -3.4191067821e-01
 3  1  2     0.0000000000e+00
 3  1  3     2.7364319497e-01
 3  2  1     0.0000000000e+00
 3  2  2     1.1070050877e-01
 3  2  3     0.0000000000e+00
 3  3  1     3.4191067821e-01
 3  3  2     0.0000000000e+00
 3  3  3    -1.6712171201e-01

   21
-2.3472316662e+00 0.0000000000e+00 2.3472316662e+00
-2.3472316662e+00 0.0000000000e+00 2.3472316662e+00
     1      1      1
 1  1  1    -1.6712171201e-01
 1  1  2     0.0000000000e+00
 1  1  3     3.4191067821e-01
 1  2  1     0.0000000000e+00
 1  2  2     9.9296279580e-02
 1  2  3     0.0000000000e+00
 1  3  1     3.4191067821e-01
 1  3  2     0.0000000000e+00
 1  3  3    -2.7364319497e-01
 2  1  1     0.0000000000e+00
 2  1  2     1.1070050877e-01
 2  1  3     0.0000000000e+00
 2  2  1     1.1070050877e-01
 2  2  2     0.0000000000e+00
 2  2  3    -1.1070050877e-01
 2  3  1     0.0000000000e+00
 2  3  2    -1.1070050877e-01
 2  3  3     0.0000000000e+00
 3  1  1     2.7364319497e-01
 3  1  2     0.0000000000e+00
 3  1  3    -3.4191067821e-01
 3  2  1     0.0000000000e+00
 3  2  2    -9.9296279580e-02
 3  2  3     0.0000000000e+00
 3  3  1    -3.4191067821e-01
 3  3  2     0.0000000000e+00
 3  3  3     1.6712171201e-01

   22
-2.3472316662e+00 0.0000000000e+00 2.3472316662e+00
0.0000000000e+00 2.3472316662e+00 2.3472316662e+00
     1      1      1
 1  1  1     3.8566548925e-03
 1  1  2    -3.8237189837e-03
 1  1  3    -1.9211662655e-03
 1  2  1    -2.5730104554e-03
 1  2  2    -1.9211662655e-03
 1  2  3     0.0000000000e+00
 1  3  1     2.5730104554e-03
 1  3  2     6.4277581542e-03
 1  3  3     2.5730104554e-03
 2  1  1     1.9211662655e-03
 2  1  2     3.8237189837e-03
 2  1  3     6.4277581542e-03
 2  2  1     2.5730104554e-03
 2  2  2    -3.8566548925e-03
 2  2  3     2.5730104554e-03
 2  3  1     0.0000000000e+00
 2  3  2    -1.9211662655e-03
 2  3  3    -2.5730104554e-03
 3  1  1     3.8237189837e-03
 3  1  2     2.5711032617e-03
 3  1  3     3.8237189837e-03
 3  2  1     6.4277581542e-03
 3  2  2     3.8237189837e-03
 3  2  3     1.9211662655e-03
 3  3  1    -1.9211662655e-03
 3  3  2    -3.8237189837e-03
 3  3  3     3.8566548925e-03

   23
-2.3472316662e+00 0.0000000000e+00 2.3472316662e+00
0.0000000000e+00 -2.3472316662e+00 -2.3472316662e+00
     1      1      2
 1  1  1    -2.0568217094e-02
 1  1  2     0.0000000000e+00
 1  1  3     3.1421096313e-02
 1  2  1     0.0000000000e+00
 1  2  2     6.4271491608e-03
 1  2  3     0.0000000000e+00
 1  3  1    -7.9195346204e-02
 1  3  2     0.0000000000e+00
 1  3  3    -7.9195346204e-02
 2  1  1     0.0000000000e+00
 2  1  2    -1.6466850529e-02
 2  1  3     0.0000000000e+00
 2  2  1    -2.0862793743e-02
 2  2  2     0.0000000000e+00
 2  2  3    -2.0862793743e-02
 2  3  1     0.0000000000e+00
 2  3  2     6.4271491608e-03
 2  3  3     0.0000000000e+00
 3  1  1    -1.3429279957e-02
 3  1  2     0.0000000000e+00
 3  1  3    -1.3429279957e-02
 3  2  1     0.0000000000e+00
 3  2  2    -1.6466850529e-02
 3  2  3     0.0000000000e+00
 3  3  1     3.1421096313e-02
 3  3  2     0.0000000000e+00
 3  3  3    -2.0568217094e-02

   24
-2.3472316662e+00 0.0000000000e+00 2.3472316662e+00
-2.3472316662e+00 -2.3472316662e+00 -4.4563223476e-16
     1      1      1
 1  1  1    -3.8566548925e-03
 1  1  2     3.8237189837e-03
 1  1  3     1.9211662655e-03
 1  2  1    -1.9211662655e-03
 1  2  2    -3.8237189837e-03
 1  2  3    -6.4277581542e-03
 1  3  1    -3.8237189837e-03
 1  3  2    -2.5711032617e-03
 1  3  3    -3.8237189837e-03
 2  1  1     2.5730104554e-03
 2  1  2     1.9211662655e-03
 2  1  3     0.0000000000e+00
 2  2  1    -2.5730104554e-03
 2  2  2     3.8566548925e-03
 2  2  3    -2.5730104554e-03
 2  3  1    -6.4277581542e-03
 2  3  2    -3.8237189837e-03
 2  3  3    -1.9211662655e-03
 3  1  1    -2.5730104554e-03
 3  1  2    -6.4277581542e-03
 3  1  3    -2.5730104554e-03
 3  2  1     0.0000000000e+00
 3  2  2     1.9211662655e-03
 3  2  3     2.5730104554e-03
 3  3  1     1.9211662655e-03
 3  3  2     3.8237189837e-03
 3  3  3    -3.8566548925e-03

   25
-2.3472316662e+00 0.0000000000e+00 2.3472316662e+00
-2.3472316662e+00 2.3472316662e+00 0.0000000000e+00
     1      1      1
 1  1  1    -3.8566548925e-03
 1  1  2    -3.8237189837e-03
 1  1  3     1.9211662655e-03
 1  2  1     1.9211662655e-03
 1  2  2    -3.8237189837e-03
 1  2  3     6.4277581542e-03
 1  3  1    -3.8237189837e-03
 1  3  2     2.5711032617e-03
 1  3  3    -3.8237189837e-03
 2  1  1    -2.5730104554e-03
 2  1  2     1.9211662655e-03
 2  1  3     0.0000000000e+00
 2  2  1    -2.5730104554e-03
 2  2  2    -3.8566548925e-03
 2  2  3    -2.5730104554e-03
 2  3  1     6.4277581542e-03
 2  3  2    -3.8237189837e-03
 2  3  3     1.9211662655e-03
 3  1  1    -2.5730104554e-03
 3  1  2     6.4277581542e-03
 3  1  3    -2.5730104554e-03
 3  2  1     0.0000000000e+00
 3  2  2     1.9211662655e-03
 3  2  3    -2.5730104554e-03
 3  3  1     1.9211662655e-03
 3  3  2    -3.8237189837e-03
 3  3  3    -3.8566548925e-03

   26
-2.3472316662e+00 0.0000000000e+00 2.3472316662e+00
2.3472316662e+00 -2.3472316662e+00 0.0000000000e+00
     1      1      2
 1  1  1     2.0568217094e-02
 1  1  2     0.0000000000e+00
 1  1  3    -3.1421096313e-02
 1  2  1     0.0000000000e+00
 1  2  2     1.6466850529e-02
 1  2  3     0.0000000000e+00
 1  3  1     1.3429279957e-02
 1  3  2     0.0000000000e+00
 1  3  3     1.3429279957e-02
 2  1  1     0.0000000000e+00
 2  1  2    -6.4271491608e-03
 2  1  3     0.0000000000e+00
 2  2  1     2.0862793743e-02
 2  2  2     0.0000000000e+00
 2  2  3     2.0862793743e-02
 2  3  1     0.0000000000e+00
 2  3  2     1.6466850529e-02
 2  3  3     0.0000000000e+00
 3  1  1     7.9195346204e-02
 3  1  2     0.0000000000e+00
 3  1  3     7.9195346204e-02
 3  2  1     0.0000000000e+00
 3  2  2    -6.4271491608e-03
 3  2  3     0.0000000000e+00
 3  3  1    -3.1421096313e-02
 3  3  2     0.0000000000e+00
 3  3  3     2.0568217094e-02

   27
-2.3472316662e+00 0.0000000000e+00 2.3472316662e+00
4.4563223476e-16 -2.3472316662e+00 2.3472316662e+00
     1      1      1
 1  1  1     3.8566548925e-03
 1  1  2     3.8237189837e-03
 1  1  3    -1.9211662655e-03
 1  2  1     2.5730104554e-03
 1  2  2    -1.9211662655e-03
 1  2  3     0.0000000000e+00
 1  3  1     2.5730104554e-03
 1  3  2    -6.4277581542e-03
 1  3  3     2.5730104554e-03
 2  1  1    -1.9211662655e-03
 2  1  2     3.8237189837e-03
 2  1  3    -6.4277581542e-03
 2  2  1     2.5730104554e-03
 2  2  2     3.8566548925e-03
 2  2  3     2.5730104554e-03
 2  3  1     0.0000000000e+00
 2  3  2    -1.9211662655e-03
 2  3  3     2.5730104554e-03
 3  1  1     3.8237189837e-03
 3  1  2    -2.5711032617e-03
 3  1  3     3.8237189837e-03
 3  2  1    -6.4277581542e-03
 3  2  2     3.8237189837e-03
 3  2  3    -1.9211662655e-03
 3  3  1    -1.9211662655e-03
 3  3  2     3.8237189837e-03
 3  3  3     3.8566548925e-03

   28
2.3472316662e+00 0.0000000000e+00 -2.3472316662e+00
0.0000000000e+00 0.0000000000e+00 0.0000000000e+00
     1      1      1
 1  1  1    -1.6712171201e-01
 1  1  2     0.0000000000e+00
 1  1  3     3.4191067821e-01
 1  2  1     0.0000000000e+00
 1  2  2     1.1070050877e-01
 1  2  3     0.0000000000e+00
 1  3  1     2.7364319497e-01
 1  3  2     0.0000000000e+00
 1  3  3    -3.4191067821e-01
 2  1  1     0.0000000000e+00
 2  1  2     9.9296279580e-02
 2  1  3     0.0000000000e+00
 2  2  1     1.1070050877e-01
 2  2  2     0.0000000000e+00
 2  2  3    -1.1070050877e-01
 2  3  1     0.0000000000e+00
 2  3  2    -9.9296279580e-02
 2  3  3     0.0000000000e+00
 3  1  1     3.4191067821e-01
 3  1  2     0.0000000000e+00
 3  1  3    -2.7364319497e-01
 3  2  1     0.0000000000e+00
 3  2  2    -1.1070050877e-01
 3  2  3     0.0000000000e+00
 3  3  1    -3.4191067821e-01
 3  3  2     0.0000000000e+00
 3  3  3     1.6712171201e-01

   29
2.3472316662e+00 0.0000000000e+00 -2.3472316662e+00
2.3472316662e+00 0.0000000000e+00 -2.3472316662e+00
     1      1      1
 1  1  1     1.6712171201e-01
 1  1  2     0.0000000000e+00
 1  1  3    -3.4191067821e-01
 1  2  1     0.0000000000e+00
 1  2  2    -9.9296279580e-02
 1  2  3     0.0000000000e+00
 1  3  1    -3.4191067821e-01
 1  3  2     0.0000000000e+00
 1  3  3     2.7364319497e-01
 2  1  1     0.0000000000e+00
 2  1  2    -1.1070050877e-01
 2  1  3     0.0000000000e+00
 2  2  1    -1.1070050877e-01
 2  2  2     0.0000000000e+00
 2  2  3     1.1070050877e-01
 2  3  1     0.0000000000e+00
 2  3  2     1.1070050877e-01
 2  3  3     0.0000000000e+00
 3  1  1    -2.7364319497e-01
 3  1  2     0.0000000000e+00
 3  1  3     3.4191067821e-01
 3  2  1     0.0000000000e+00
 3  2  2     9.9296279580e-02
 3  2  3     0.0000000000e+00
 3  3  1     3.4191067821e-01
 3  3  2     0.0000000000e+00
 3  3  3    -1.6712171201e-01

   30
2.3472316662e+00 0.0000000000e+00 -2.3472316662e+00
2.3472316662e+00 2.3472316662e+00 -5.0037187354e-16
     1      1      1
 1  1  1     3.8566548925e-03
 1  1  2    -3.8237189837e-03
 1  1  3    -1.9211662655e-03
 1  2  1     1.9211662655e-03
 1  2  2     3.8237189837e-03
 1  2  3     6.4277581542e-03
 1  3  1     3.8237189837e-03
 1  3  2     2.5711032617e-03
 1  3  3     3.8237189837e-03
 2  1  1    -2.5730104554e-03
 2  1  2    -1.9211662655e-03
 2  1  3     0.0000000000e+00
 2  2  1     2.5730104554e-03
 2  2  2    -3.8566548925e-03
 2  2  3     2.5730104554e-03
 2  3  1     6.4277581542e-03
 2  3  2     3.8237189837e-03
 2  3  3     1.9211662655e-03
 3  1  1     2.5730104554e-03
 3  1  2     6.4277581542e-03
 3  1  3     2.5730104554e-03
 3  2  1     0.0000000000e+00
 3  2  2    -1.9211662655e-03
 3  2  3    -2.5730104554e-03
 3  3  1    -1.9211662655e-03
 3  3  2    -3.8237189837e-03
 3  3  3     3.8566548925e-03

   31
2.3472316662e+00 0.0000000000e+00 -2.3472316662e+00
0.0000000000e+00 -2.3472316662e+00 -2.3472316662e+00
     1      1      1
 1  1  1    -3.8566548925e-03
 1  1  2     3.8237189837e-03
 1  1  3     1.9211662655e-03
 1  2  1     2.5730104554e-03
 1  2  2     1.9211662655e-03
 1  2  3     0.0000000000e+00
 1  3  1    -2.5730104554e-03
 1  3  2    -6.4277581542e-03
 1  3  3    -2.5730104554e-03
 2  1  1    -1.9211662655e-03
 2  1  2    -3.8237189837e-03
 2  1  3    -6.4277581542e-03
 2  2  1    -2.5730104554e-03
 2  2  2     3.8566548925e-03
 2  2  3    -2.5730104554e-03
 2  3  1     0.0000000000e+00
 2  3  2     1.9211662655e-03
 2  3  3     2.5730104554e-03
 3  1  1    -3.8237189837e-03
 3  1  2    -2.5711032617e-03
 3  1  3    -3.8237189837e-03
 3  2  1    -6.4277581542e-03
 3  2  2    -3.8237189837e-03
 3  2  3    -1.9211662655e-03
 3  3  1     1.9211662655e-03
 3  3  2     3.8237189837e-03
 3  3  3    -3.8566548925e-03

   32
2.3472316662e+00 0.0000000000e+00 -2.3472316662e+00
2.3472316662e+00 -2.3472316662e+00 -4.6944633324e+00
     1      1      2
 1  1  1    -2.0568217094e-02
 1  1  2     0.0000000000e+00
 1  1  3     3.1421096313e-02
 1  2  1     0.0000000000e+00
 1  2  2    -1.6466850529e-02
 1  2  3     0.0000000000e+00
 1  3  1    -1.3429279957e-02
 1  3  2     0.0000000000e+00
 1  3  3    -1.3429279957e-02
 2  1  1     0.0000000000e+00
 2  1  2     6.4271491608e-03
 2  1  3     0.0000000000e+00
 2  2  1    -2.0862793743e-02
 2  2  2     0.0000000000e+00
 2  2  3    -2.0862793743e-02
 2  3  1     0.0000000000e+00
 2  3  2    -1.6466850529e-02
 2  3  3     0.0000000000e+00
 3  1  1    -7.9195346204e-02
 3  1  2     0.0000000000e+00
 3  1  3    -7.9195346204e-02
 3  2  1     0.0000000000e+00