 2918

    1
0.0000000000e+00 0.0000000000e+00 0.0000000000e+00
0.0000000000e+00 0.0000000000e+00 0.0000000000e+00
     1      1      1
 1  1  1     0.0000000000e+00
 1  1  2     0.0000000000e+00
 1  1  3     0.0000000000e+00
 1  2  1     0.0000000000e+00
 1  2  2     0.0000000000e+00
 1  2  3     0.0000000000e+00
 1  3  1     0.0000000000e+00
 1  3  2     0.0000000000e+00
 1  3  3     0.0000000000e+00
 2  1  1     0.0000000000e+00
 2  1  2     0.0000000000e+00
 2  1  3     0.0000000000e+00
 2  2  1     0.0000000000e+00
 2  2  2     0.0000000000e+00
 2  2  3     0.0000000000e+00
 2  3  1     0.0000000000e+00
 2  3  2     0.0000000000e+00
 2  3  3     0.0000000000e+00
 3  1  1     0.0000000000e+00
 3  1  2     0.0000000000e+00
 3  1  3     0.0000000000e+00
 3  2  1     0.0000000000e+00
 3  2  2     0.0000000000e+00
 3  2  3     0.0000000000e+00
 3  3  1     0.0000000000e+00
 3  3  2     0.0000000000e+00
 3  3  3     0.0000000000e+00

    2
0.0000000000e+00 0.0000000000e+00 0.0000000000e+00
0.0000000000e+00 0.0000000000e+00 0.0000000000e+00
     1      1      2
 1  1  1     1.6389873586e-02
 1  1  2     2.1442303475e-02
 1  1  3     2.1442303475e-02
 1  2  1     1.6390231167e-02
 1  2  2    -1.6390231167e-02
 1  2  3    -1.8316341295e-02
 1  3  1     1.6390231167e-02
 1  3  2    -1.8316341295e-02
 1  3  3    -1.6390231167e-02
 2  1  1     1.6390231167e-02
 2  1  2    -1.6390231167e-02
 2  1  3    -1.8316341295e-02
 2  2  1    -2.1442303475e-02
 2  2  2    -1.6389873586e-02
 2  2  3     2.1442303475e-02
 2  3  1    -1.8316341295e-02
 2  3  2     1.6390231167e-02
 2  3  3     1.6390231167e-02
 3  1  1     1.6390231167e-02
 3  1  2    -1.8316341295e-02
 3  1  3    -1.6390231167e-02
 3  2  1    -1.8316341295e-02
 3  2  2     1.6390231167e-02
 3  2  3     1.6390231167e-02
 3  3  1    -2.1442303475e-02
 3  3  2     2.1442303475e-02
 3  3  3    -1.6389873586e-02

    3
0.0000000000e+00 0.0000000000e+00 0.0000000000e+00
-2.8050949536e+00 0.0000000000e+00 2.8050949536e+00
     1      1      1
 1  1  1     1.3498292124e-02
 1  1  2     0.0000000000e+00
 1  1  3    -1.3902783638e-01
 1  2  1     0.0000000000e+00
 1  2  2    -3.8995687014e-02
 1  2  3     0.0000000000e+00
 1  3  1    -9.8561107779e-02
 1  3  2     0.0000000000e+00
 1  3  3     9.8561107779e-02
 2  1  1     0.0000000000e+00
 2  1  2    -3.8995687014e-02
 2  1  3     0.0000000000e+00
 2  2  1    -4.8785420891e-02
 2  2  2     0.0000000000e+00
 2  2  3     4.8785420891e-02
 2  3  1     0.0000000000e+00
 2  3  2     3.8995687014e-02
 2  3  3     0.0000000000e+00
 3  1  1    -9.8561107779e-02
 3  1  2     0.0000000000e+00
 3  1  3     9.8561107779e-02
 3  2  1     0.0000000000e+00
 3  2  2     3.8995687014e-02
 3  2  3     0.0000000000e+00
 3  3  1     1.3902783638e-01
 3  3  2     0.0000000000e+00
 3  3  3    -1.3498292124e-02

    4
0.0000000000e+00 0.0000000000e+00 0.0000000000e+00
5.6101899072e+00 0.0000000000e+00 -5.6101899072e+00
     1      1      2
 1  1  1    -1.6389873586e-02
 1  1  2     2.1442303475e-02
 1  1  3    -2.1442303475e-02
 1  2  1     1.6390231167e-02
 1  2  2     1.6390231167e-02
 1  2  3    -1.8316341295e-02
 1  3  1    -1.6390231167e-02
 1  3  2    -1.8316341295e-02
 1  3  3     1.6390231167e-02
 2  1  1     1.6390231167e-02
 2  1  2     1.6390231167e-02
 2  1  3    -1.8316341295e-02
 2  2  1     2.1442303475e-02
 2  2  2    -1.6389873586e-02
 2  2  3    -2.1442303475e-02
 2  3  1    -1.8316341295e-02
 2  3  2    -1.6390231167e-02
 2  3  3     1.6390231167e-02
 3  1  1    -1.6390231167e-02
 3  1  2    -1.8316341295e-02
 3  1  3     1.6390231167e-02
 3  2  1    -1.8316341295e-02
 3  2  2    -1.6390231167e-02
 3  2  3     1.6390231167e-02
 3  3  1     2.1442303475e-02
 3  3  2     2.1442303475e-02
 3  3  3     1.6389873586e-02

    5
0.0000000000e+00 0.0000000000e+00 0.0000000000e+00
2.8050949536e+00 0.0000000000e+00 -2.8050949536e+00
     1      1      1
 1  1  1    -1.3498292124e-02
 1  1  2     0.0000000000e+00
 1  1  3     1.3902783638e-01
 1  2  1     0.0000000000e+00
 1  2  2     3.8995687014e-02
 1  2  3     0.0000000000e+00
 1  3  1     9.8561107779e-02
 1  3  2     0.0000000000e+00
 1  3  3    -9.8561107779e-02
 2  1  1     0.0000000000e+00
 2  1  2     3.8995687014e-02
 2  1  3     0.0000000000e+00
 2  2  1     4.8785420891e-02
 2  2  2     0.0000000000e+00
 2  2  3    -4.8785420891e-02
 2  3  1     0.0000000000e+00
 2  3  2    -3.8995687014e-02
 2  3  3     0.0000000000e+00
 3  1  1     9.8561107779e-02
 3  1  2     0.0000000000e+00
 3  1  3    -9.8561107779e-02
 3  2  1     0.0000000000e+00
 3  2  2    -3.8995687014e-02
 3  2  3     0.0000000000e+00
 3  3  1    -1.3902783638e-01
 3  3  2     0.0000000000e+00
 3  3  3     1.3498292124e-02

    6
0.0000000000e+00 0.0000000000e+00 0.0000000000e+00
2.8050949536e+00 0.0000000000e+00 -2.8050949536e+00
     1      1      2
 1  1  1     0.0000000000e+00
 1  1  2     2.4720557320e-01
 1  1  3     0.0000000000e+00
 1  2  1     1.3563967201e-01
 1  2  2     0.0000000000e+00
 1  2  3     0.0000000000e+00
 1  3  1     0.0000000000e+00
 1  3  2     0.0000000000e+00
 1  3  3     0.0000000000e+00
 2  1  1     1.3563967201e-01
 2  1  2     0.0000000000e+00
 2  1  3     0.0000000000e+00
 2  2  1     0.0000000000e+00
 2  2  2    -4.4196084691e+00
 2  2  3     0.0000000000e+00
 2  3  1     0.0000000000e+00
 2  3  2     0.0000000000e+00
 2  3  3     1.3563967201e-01
 3  1  1     0.0000000000e+00
 3  1  2     0.0000000000e+00
 3  1  3     0.0000000000e+00
 3  2  1     0.0000000000e+00
 3  2  2     0.0000000000e+00
 3  2  3     1.3563967201e-01
 3  3  1     0.0000000000e+00
 3  3  2     2.4720557320e-01
 3  3  3     0.0000000000e+00

    7
0.0000000000e+00 0.0000000000e+00 0.0000000000e+00
0.0000000000e+00 2.8050949536e+00 2.8050949536e+00
     1      1      1
 1  1  1     0.0000000000e+00
 1  1  2     4.8785420891e-02
 1  1  3     4.8785420891e-02
 1  2  1     3.8995687014e-02
 1  2  2     0.0000000000e+00
 1  2  3     0.0000000000e+00
 1  3  1     3.8995687014e-02
 1  3  2     0.0000000000e+00
 1  3  3     0.0000000000e+00
 2  1  1     3.8995687014e-02
 2  1  2     0.0000000000e+00
 2  1  3     0.0000000000e+00
 2  2  1     0.0000000000e+00
 2  2  2    -1.3498292124e-02
 2  2  3    -1.3902783638e-01
 2  3  1     0.0000000000e+00
 2  3  2    -9.8561107779e-02
 2  3  3    -9.8561107779e-02
 3  1  1     3.8995687014e-02
 3  1  2     0.0000000000e+00
 3  1  3     0.0000000000e+00
 3  2  1     0.0000000000e+00
 3  2  2    -9.8561107779e-02
 3  2  3    -9.8561107779e-02
 3  3  1     0.0000000000e+00
 3  3  2    -1.3902783638e-01
 3  3  3    -1.3498292124e-02

    8
0.0000000000e+00 0.0000000000e+00 0.0000000000e+00
5.6101899072e+00 2.8050949536e+00 -2.8050949536e+00
     1      1      2
 1  1  1    -1.8102186267e-02
 1  1  2    -4.9859007341e-03
 1  1  3     0.0000000000e+00
 1  2  1    -2.8768636913e-03
 1  2  2     2.3013222884e-03
 1  2  3     0.0000000000e+00
 1  3  1     0.0000000000e+00
 1  3  2     0.0000000000e+00
 1  3  3    -3.0631507949e-03
 2  1  1    -2.8768636913e-03
 2  1  2     2.3013222884e-03
 2  1  3     0.0000000000e+00
 2  2  1     1.3455684342e-02
 2  2  2     1.1566851559e-02
 2  2  3     0.0000000000e+00
 2  3  1     0.0000000000e+00
 2  3  2     0.0000000000e+00
 2  3  3    -2.6428288816e-03
 3  1  1     0.0000000000e+00
 3  1  2     0.0000000000e+00
 3  1  3    -3.0631507949e-03
 3  2  1     0.0000000000e+00
 3  2  2     0.0000000000e+00
 3  2  3    -2.6428288816e-03
 3  3  1    -1.1896934797e-02
 3  3  2    -1.2230890635e-02
 3  3  3     0.0000000000e+00

    9
0.0000000000e+00 0.0000000000e+00 0.0000000000e+00
2.8050949536e+00 2.8050949536e+00 0.0000000000e+00
     1      1      1
 1  1  1    -1.3498292124e-02
 1  1  2    -1.3902783638e-01
 1  1  3     0.0000000000e+00
 1  2  1    -9.8561107779e-02
 1  2  2    -9.8561107779e-02
 1  2  3     0.0000000000e+00
 1  3  1     0.0000000000e+00
 1  3  2     0.0000000000e+00
 1  3  3     3.8995687014e-02
 2  1  1    -9.8561107779e-02
 2  1  2    -9.8561107779e-02
 2  1  3     0.0000000000e+00
 2  2  1    -1.3902783638e-01
 2  2  2    -1.3498292124e-02
 2  2  3     0.0000000000e+00
 2  3  1     0.0000000000e+00
 2  3  2     0.0000000000e+00
 2  3  3     3.8995687014e-02
 3  1  1     0.0000000000e+00
 3  1  2     0.0000000000e+00
 3  1  3     3.8995687014e-02
 3  2  1     0.0000000000e+00
 3  2  2     0.0000000000e+00
 3  2  3     3.8995687014e-02
 3  3  1     4.8785420891e-02
 3  3  2     4.8785420891e-02
 3  3  3     0.0000000000e+00

   10
0.0000000000e+00 0.0000000000e+00 0.0000000000e+00
2.8050949536e+00 2.8050949536e+00 0.0000000000e+00
     1      1      2
 1  1  1     0.0000000000e+00
 1  1  2    -1.2230890635e-02
 1  1  3    -1.1896934797e-02
 1  2  1    -2.6428288816e-03
 1  2  2     0.0000000000e+00
 1  2  3     0.0000000000e+00
 1  3  1    -3.0631507949e-03
 1  3  2     0.0000000000e+00
 1  3  3     0.0000000000e+00
 2  1  1    -2.6428288816e-03
 2  1  2     0.0000000000e+00
 2  1  3     0.0000000000e+00
 2  2  1     0.0000000000e+00
 2  2  2     1.1566851559e-02
 2  2  3     1.3455684342e-02
 2  3  1     0.0000000000e+00
 2  3  2     2.3013222884e-03
 2  3  3    -2.8768636913e-03
 3  1  1    -3.0631507949e-03
 3  1  2     0.0000000000e+00
 3  1  3     0.0000000000e+00
 3  2  1     0.0000000000e+00
 3  2  2     2.3013222884e-03
 3  2  3    -2.8768636913e-03
 3  3  1     0.0000000000e+00
 3  3  2    -4.9859007341e-03
 3  3  3    -1.8102186267e-02

   11
0.0000000000e+00 0.0000000000e+00 0.0000000000e+00
0.0000000000e+00 -5.6101899072e+00 -5.6101899072e+00
     1      1      2
 1  1  1     1.6389873586e-02
 1  1  2    -2.1442303475e-02
 1  1  3    -2.1442303475e-02
 1  2  1    -1.6390231167e-02
 1  2  2    -1.6390231167e-02
 1  2  3    -1.8316341295e-02
 1  3  1    -1.6390231167e-02
 1  3  2    -1.8316341295e-02
 1  3  3    -1.6390231167e-02
 2  1  1    -1.6390231167e-02
 2  1  2    -1.6390231167e-02
 2  1  3    -1.8316341295e-02
 2  2  1    -2.1442303475e-02
 2  2  2     1.6389873586e-02
 2  2  3    -2.1442303475e-02
 2  3  1    -1.8316341295e-02
 2  3  2    -1.6390231167e-02
 2  3  3    -1.6390231167e-02
 3  1  1    -1.6390231167e-02
 3  1  2    -1.8316341295e-02
 3  1  3    -1.6390231167e-02
 3  2  1    -1.8316341295e-02
 3  2  2    -1.6390231167e-02
 3  2  3    -1.6390231167e-02
 3  3  1    -2.1442303475e-02
 3  3  2    -2.1442303475e-02
 3  3  3     1.6389873586e-02

   12
0.0000000000e+00 0.0000000000e+00 0.0000000000e+00
-2.8050949536e+00 -5.6101899072e+00 -2.8050949536e+00
     1      1      2
 1  1  1    -1.1566851559e-02
 1  1  2    -1.3455684342e-02
 1  1  3     0.0000000000e+00
 1  2  1    -2.3013222884e-03
 1  2  2     2.8768636913e-03
 1  2  3     0.0000000000e+00
 1  3  1     0.0000000000e+00
 1  3  2     0.0000000000e+00
 1  3  3     2.6428288816e-03
 2  1  1    -2.3013222884e-03
 2  1  2     2.8768636913e-03
 2  1  3     0.0000000000e+00
 2  2  1     4.9859007341e-03
 2  2  2     1.8102186267e-02
 2  2  3     0.0000000000e+00
 2  3  1     0.0000000000e+00
 2  3  2     0.0000000000e+00
 2  3  3     3.0631507949e-03
 3  1  1     0.0000000000e+00
 3  1  2     0.0000000000e+00
 3  1  3     2.6428288816e-03
 3  2  1     0.0000000000e+00
 3  2  2     0.0000000000e+00
 3  2  3     3.0631507949e-03
 3  3  1     1.2230890635e-02
 3  3  2     1.1896934797e-02
 3  3  3     0.0000000000e+00

   13
0.0000000000e+00 0.0000000000e+00 0.0000000000e+00
2.8050949536e+00 -5.6101899072e+00 -8.4152848609e+00
     1      1      2
 1  1  1     0.0000000000e+00
 1  1  2     1.1896934797e-02
 1  1  3     1.2230890635e-02
 1  2  1     3.0631507949e-03
 1  2  2     0.0000000000e+00
 1  2  3     0.0000000000e+00
 1  3  1     2.6428288816e-03
 1  3  2     0.0000000000e+00
 1  3  3     0.0000000000e+00
 2  1  1     3.0631507949e-03
 2  1  2     0.0000000000e+00
 2  1  3     0.0000000000e+00
 2  2  1     0.0000000000e+00
 2  2  2     1.8102186267e-02
 2  2  3     4.9859007341e-03
 2  3  1     0.0000000000e+00
 2  3  2     2.8768636913e-03
 2  3  3    -2.3013222884e-03
 3  1  1     2.6428288816e-03
 3  1  2     0.0000000000e+00
 3  1  3     0.0000000000e+00
 3  2  1     0.0000000000e+00
 3  2  2     2.8768636913e-03
 3  2  3    -2.3013222884e-03
 3  3  1     0.0000000000e+00
 3  3  2    -1.3455684342e-02
 3  3  3    -1.1566851559e-02

   14
0.0000000000e+00 0.0000000000e+00 0.0000000000e+00
0.0000000000e+00 -2.8050949536e+00 -2.8050949536e+00
     1      1      1
 1  1  1     0.0000000000e+00
 1  1  2    -4.8785420891e-02
 1  1  3    -4.8785420891e-02
 1  2  1    -3.8995687014e-02
 1  2  2     0.0000000000e+00
 1  2  3     0.0000000000e+00
 1  3  1    -3.8995687014e-02
 1  3  2     0.0000000000e+00
 1  3  3     0.0000000000e+00
 2  1  1    -3.8995687014e-02
 2  1  2     0.0000000000e+00
 2  1  3     0.0000000000e+00
 2  2  1     0.0000000000e+00
 2  2  2     1.3498292124e-02
 2  2  3     1.3902783638e-01
 2  3  1     0.0000000000e+00
 2  3  2     9.8561107779e-02
 2  3  3     9.8561107779e-02
 3  1  1    -3.8995687014e-02
 3  1  2     0.0000000000e+00
 3  1  3     0.0000000000e+00
 3  2  1     0.0000000000e+00
 3  2  2     9.8561107779e-02
 3  2  3     9.8561107779e-02
 3  3  1     0.0000000000e+00
 3  3  2     1.3902783638e-01
 3  3  3     1.3498292124e-02

   15
0.0000000000e+00 0.0000000000e+00 0.0000000000e+00
0.0000000000e+00 -2.8050949536e+00 -2.8050949536e+00
     1      1      2
 1  1  1     4.4196084691e+00
 1  1  2     0.0000000000e+00
 1  1  3     0.0000000000e+00
 1  2  1     0.0000000000e+00
 1  2  2    -1.3563967201e-01
 1  2  3     0.0000000000e+00
 1  3  1     0.0000000000e+00
 1  3  2     0.0000000000e+00
 1  3  3    -1.3563967201e-01
 2  1  1     0.0000000000e+00
 2  1  2    -1.3563967201e-01
 2  1  3     0.0000000000e+00
 2  2  1    -2.4720557320e-01
 2  2  2     0.0000000000e+00
 2  2  3     0.0000000000e+00
 2  3  1     0.0000000000e+00
 2  3  2     0.0000000000e+00
 2  3  3     0.0000000000e+00
 3  1  1     0.0000000000e+00
 3  1  2     0.0000000000e+00
 3  1  3    -1.3563967201e-01
 3  2  1     0.0000000000e+00
 3  2  2     0.0000000000e+00
 3  2  3     0.0000000000e+00
 3  3  1    -2.4720557320e-01
 3  3  2     0.0000000000e+00
 3  3  3     0.0000000000e+00

   16
0.0000000000e+00 0.0000000000e+00 0.0000000000e+00
-2.8050949536e+00 -2.8050949536e+00 0.0000000000e+00
     1      1      1
 1  1  1     1.3498292124e-02
 1  1  2     1.3902783638e-01
 1  1  3     0.0000000000e+00
 1  2  1     9.8561107779e-02
 1  2  2     9.8561107779e-02
 1  2  3     0.0000000000e+00
 1  3  1     0.0000000000e+00
 1  3  2     0.0000000000e+00
 1  3  3    -3.8995687014e-02
 2  1  1     9.8561107779e-02
 2  1  2     9.8561107779e-02
 2  1  3     0.0000000000e+00
 2  2  1     1.3902783638e-01
 2  2  2     1.3498292124e-02
 2  2  3     0.0000000000e+00
 2  3  1     0.0000000000e+00
 2  3  2     0.0000000000e+00
 2  3  3    -3.8995687014e-02
 3  1  1     0.0000000000e+00
 3  1  2     0.0000000000e+00
 3  1  3    -3.8995687014e-02
 3  2  1     0.0000000000e+00
 3  2  2     0.0000000000e+00
 3  2  3    -3.8995687014e-02
 3  3  1    -4.8785420891e-02
 3  3  2    -4.8785420891e-02
 3  3  3     0.0000000000e+00

   17
0.0000000000e+00 0.0000000000e+00 0.0000000000e+00
-2.8050949536e+00 -2.8050949536e+00 0.0000000000e+00
     1      1      2
 1  1  1    -1.1566851559e-02
 1  1  2     0.0000000000e+00
 1  1  3     1.3455684342e-02
 1  2  1     0.0000000000e+00
 1  2  2     2.6428288816e-03
 1  2  3     0.0000000000e+00
 1  3  1     2.3013222884e-03
 1  3  2     0.0000000000e+00
 1  3  3     2.8768636913e-03
 2  1  1     0.0000000000e+00
 2  1  2     2.6428288816e-03
 2  1  3     0.0000000000e+00
 2  2  1     1.2230890635e-02
 2  2  2     0.0000000000e+00
 2  2  3    -1.1896934797e-02
 2  3  1     0.0000000000e+00
 2  3  2    -3.0631507949e-03
 2  3  3     0.0000000000e+00
 3  1  1     2.3013222884e-03
 3  1  2     0.0000000000e+00
 3  1  3     2.8768636913e-03
 3  2  1     0.0000000000e+00
 3  2  2    -3.0631507949e-03
 3  2  3     0.0000000000e+00
 3  3  1     4.9859007341e-03
 3  3  2     0.0000000000e+00
 3  3  3    -1.8102186267e-02

   18
0.0000000000e+00 0.0000000000e+00 0.0000000000e+00
5.6101899072e+00 -2.8050949536e+00 -8.4152848609e+00
     1      1      2
 1  1  1    -1.8102186267e-02
 1  1  2     0.0000000000e+00
 1  1  3     4.9859007341e-03
 1  2  1     0.0000000000e+00
 1  2  2    -3.0631507949e-03
 1  2  3     0.0000000000e+00
 1  3  1     2.8768636913e-03
 1  3  2     0.0000000000e+00
 1  3  3     2.3013222884e-03
 2  1  1     0.0000000000e+00
 2  1  2    -3.0631507949e-03
 2  1  3     0.0000000000e+00
 2  2  1    -1.1896934797e-02
 2  2  2     0.0000000000e+00
 2  2  3     1.2230890635e-02
 2  3  1     0.0000000000e+00
 2  3  2     2.6428288816e-03
 2  3  3     0.0000000000e+00
 3  1  1     2.8768636913e-03
 3  1  2     0.0000000000e+00
 3  1  3     2.3013222884e-03
 3  2  1     0.0000000000e+00
 3  2  2     2.6428288816e-03
 3  2  3     0.0000000000e+00
 3  3  1     1.3455684342e-02
 3  3  2     0.0000000000e+00
 3  3  3    -1.1566851559e-02

   19
0.0000000000e+00 0.0000000000e+00 0.0000000000e+00
2.8050949536e+00 -2.8050949536e+00 -5.6101899072e+00
     1      1      2
 1  1  1     0.0000000000e+00
 1  1  2     0.0000000000e+00
 1  1  3    -2.4720557320e-01
 1  2  1     0.0000000000e+00
 1  2  2     0.0000000000e+00
 1  2  3     0.0000000000e+00
 1  3  1    -1.3563967201e-01
 1  3  2     0.0000000000e+00
 1  3  3     0.0000000000e+00
 2  1  1     0.0000000000e+00
 2  1  2     0.0000000000e+00
 2  1  3     0.0000000000e+00
 2  2  1     0.0000000000e+00
 2  2  2     0.0000000000e+00
 2  2  3    -2.4720557320e-01
 2  3  1     0.0000000000e+00
 2  3  2    -1.3563967201e-01
 2  3  3     0.0000000000e+00
 3  1  1    -1.3563967201e-01
 3  1  2     0.0000000000e+00
 3  1  3     0.0000000000e+00
 3  2  1     0.0000000000e+00
 3  2  2    -1.3563967201e-01
 3  2  3     0.0000000000e+00
 3  3  1     0.0000000000e+00
 3  3  2     0.0000000000e+00
 3  3  3     4.4196084691e+00

   20
0.0000000000e+00 0.0000000000e+00 0.0000000000e+00
-2.8050949536e+00 2.8050949536e+00 0.0000000000e+00
     1      1      1
 1  1  1     1.3498292124e-02
 1  1  2    -1.3902783638e-01
 1  1  3     0.0000000000e+00
 1  2  1    -9.8561107779e-02
 1  2  2     9.8561107779e-02
 1  2  3     0.0000000000e+00
 1  3  1     0.0000000000e+00
 1  3  2     0.0000000000e+00
 1  3  3    -3.8995687014e-02
 2  1  1    -9.8561107779e-02
 2  1  2     9.8561107779e-02
 2  1  3     0.0000000000e+00
 2  2  1     1.3902783638e-01
 2  2  2    -1.3498292124e-02
 2  2  3     0.0000000000e+00
 2  3  1     0.0000000000e+00
 2  3  2     0.0000000000e+00
 2  3  3     3.8995687014e-02
 3  1  1     0.0000000000e+00
 3  1  2     0.0000000000e+00
 3  1  3    -3.8995687014e-02
 3  2  1     0.0000000000e+00
 3  2  2     0.0000000000e+00
 3  2  3     3.8995687014e-02
 3  3  1    -4.8785420891e-02
 3  3  2     4.8785420891e-02
 3  3  3     0.0000000000e+00

   21
0.0000000000e+00 0.0000000000e+00 0.0000000000e+00
2.8050949536e+00 2.8050949536e+00 -5.6101899072e+00
     1      1      2
 1  1  1     0.0000000000e+00
 1  1  2    -1.2230890635e-02
 1  1  3     1.1896934797e-02
 1  2  1    -2.6428288816e-03
 1  2  2     0.0000000000e+00
 1  2  3     0.0000000000e+00
 1  3  1     3.0631507949e-03
 1  3  2     0.0000000000e+00
 1  3  3     0.0000000000e+00
 2  1  1    -2.6428288816e-03
 2  1  2     0.0000000000e+00
 2  1  3     0.0000000000e+00
 2  2  1     0.0000000000e+00
 2  2  2     1.1566851559e-02
 2  2  3    -1.3455684342e-02
 2  3  1     0.0000000000e+00
 2  3  2    -2.3013222884e-03
 2  3  3    -2.8768636913e-03
 3  1  1     3.0631507949e-03
 3  1  2     0.0000000000e+00
 3  1  3     0.0000000000e+00
 3  2  1     0.0000000000e+00
 3  2  2    -2.3013222884e-03
 3  2  3    -2.8768636913e-03
 3  3  1     0.0000000000e+00
 3  3  2    -4.9859007341e-03
 3  3  3     1.8102186267e-02

   22
0.0000000000e+00 0.0000000000e+00 0.0000000000e+00
0.0000000000e+00 2.8050949536e+00 -2.8050949536e+00
     1      1      1
 1  1  1     0.0000000000e+00
 1  1  2     4.8785420891e-02
 1  1  3    -4.8785420891e-02
 1  2  1     3.8995687014e-02
 1  2  2     0.0000000000e+00
 1  2  3     0.0000000000e+00
 1  3  1    -3.8995687014e-02
 1  3  2     0.0000000000e+00
 1  3  3     0.0000000000e+00
 2  1  1     3.8995687014e-02
 2  1  2     0.0000000000e+00
 2  1  3     0.0000000000e+00
 2  2  1     0.0000000000e+00
 2  2  2    -1.3498292124e-02
 2  2  3     1.3902783638e-01
 2  3  1     0.0000000000e+00
 2  3  2     9.8561107779e-02
 2  3  3    -9.8561107779e-02
 3  1  1    -3.8995687014e-02
 3  1  2     0.0000000000e+00
 3  1  3     0.0000000000e+00
 3  2  1     0.0000000000e+00
 3  2  2     9.8561107779e-02
 3  2  3    -9.8561107779e-02
 3  3  1     0.0000000000e+00
 3  3  2    -1.3902783638e-01
 3  3  3     1.3498292124e-02

   23
0.0000000000e+00 0.0000000000e+00 0.0000000000e+00
0.0000000000e+00 2.8050949536e+00 -2.8050949536e+00
     1      1      2
 1  1  1     1.8102186267e-02
 1  1  2    -4.9859007341e-03
 1  1  3     0.0000000000e+00
 1  2  1    -2.8768636913e-03
 1  2  2    -2.3013222884e-03
 1  2  3     0.0000000000e+00
 1  3  1     0.0000000000e+00
 1  3  2     0.0000000000e+00
 1  3  3     3.0631507949e-03
 2  1  1    -2.8768636913e-03
 2  1  2    -2.3013222884e-03
 2  1  3     0.0000000000e+00
 2  2  1    -1.3455684342e-02
 2  2  2     1.1566851559e-02
 2  2  3     0.0000000000e+00
 2  3  1     0.0000000000e+00
 2  3  2     0.0000000000e+00
 2  3  3    -2.6428288816e-03
 3  1  1     0.0000000000e+00
 3  1  2     0.0000000000e+00
 3  1  3     3.0631507949e-03
 3  2  1     0.0000000000e+00
 3  2  2     0.0000000000e+00
 3  2  3    -2.6428288816e-03
 3  3  1     1.1896934797e-02
 3  3  2    -1.2230890635e-02
 3  3  3     0.0000000000e+00

   24
0.0000000000e+00 0.0000000000e+00 0.0000000000e+00
0.0000000000e+00 5.6101899072e+00 0.0000000000e+00
     1      1      1
 1  1  1     0.0000000000e+00
 1  1  2     3.8719536672e-02
 1  1  3     0.0000000000e+00
 1  2  1    -1.2831901899e-03
 1  2  2     0.0000000000e+00
 1  2  3     0.0000000000e+00
 1  3  1     0.0000000000e+00
 1  3  2     0.0000000000e+00
 1  3  3     0.0000000000e+00
 2  1  1    -1.2831901899e-03
 2  1  2     0.0000000000e+00
 2  1  3     0.0000000000e+00
 2  2  1     0.0000000000e+00
 2  2  2    -4.9493737787e-02
 2  2  3     0.0000000000e+00
 2  3  1     0.0000000000e+00
 2  3  2     0.0000000000e+00
 2  3  3    -1.2831901899e-03
 3  1  1     0.0000000000e+00
 3  1  2     0.0000000000e+00
 3  1  3     0.0000000000e+00
 3  2  1     0.0000000000e+00
 3  2  2     0.0000000000e+00
 3  2  3    -1.2831901899e-03
 3  3  1     0.0000000000e+00
 3  3  2     3.8719536672e-02
 3  3  3     0.0000000000e+00

   25
0.0000000000e+00 0.0000000000e+00 0.0000000000e+00
-2.8050949536e+00 -2.8050949536e+00 -5.6101899072e+00
     1      1      2
 1  1  1    -1.1566851559e-02
 1  1  2     0.0000000000e+00
 1  1  3    -1.3455684342e-02
 1  2  1     0.0000000000e+00
 1  2  2     2.6428288816e-03
 1  2  3     0.0000000000e+00
 1  3  1    -2.3013222884e-03
 1  3  2     0.0000000000e+00
 1  3  3     2.8768636913e-03
 2  1  1     0.0000000000e+00
 2  1  2     2.6428288816e-03
 2  1  3     0.0000000000e+00
 2  2  1     1.2230890635e-02
 2  2  2     0.0000000000e+00
 2  2  3     1.1896934797e-02
 2  3  1     0.0000000000e+00
 2  3  2     3.0631507949e-03
 2  3  3     0.0000000000e+00
 3  1  1    -2.3013222884e-03
 3  1  2     0.0000000000e+00
 3  1  3     2.8768636913e-03
 3  2  1     0.0000000000e+00
 3  2  2     3.0631507949e-03
 3  2  3     0.0000000000e+00
 3  3  1     4.9859007341e-03
 3  3  2     0.0000000000e+00
 3  3  3     1.8102186267e-02

   26
0.0000000000e+00 0.0000000000e+00 0.0000000000e+00
0.0000000000e+00 -2.8050949536e+00 -8.4152848609e+00
     1      1      2
 1  1  1     1.8102186267e-02
 1  1  2     0.0000000000e+00
 1  1  3     4.9859007341e-03
 1  2  1     0.0000000000e+00
 1  2  2     3.0631507949e-03
 1  2  3     0.0000000000e+00
 1  3  1     2.8768636913e-03
 1  3  2     0.0000000000e+00
 1  3  3    -2.3013222884e-03
 2  1  1     0.0000000000e+00
 2  1  2     3.0631507949e-03
 2  1  3     0.0000000000e+00
 2  2  1     1.1896934797e-02
 2  2  2     0.0000000000e+00
 2  2  3     1.2230890635e-02
 2  3  1     0.0000000000e+00
 2  3  2     2.6428288816e-03
 2  3  3     0.0000000000e+00
 3  1  1     2.8768636913e-03
 3  1  2     0.0000000000e+00
 3  1  3    -2.3013222884e-03
 3  2  1     0.0000000000e+00
 3  2  2     2.6428288816e-03
 3  2  3     0.0000000000e+00
 3  3  1    -1.3455684342e-02
 3  3  2     0.0000000000e+00
 3  3  3    -1.1566851559e-02

   27
0.0000000000e+00 0.0000000000e+00 0.0000000000e+00
-2.8050949536e+00 0.0000000000e+00 -2.8050949536e+00
     1      1      1
 1  1  1     1.3498292124e-02
 1  1  2     0.0000000000e+00
 1  1  3     1.3902783638e-01
 1  2  1     0.0000000000e+00
 1  2  2    -3.8995687014e-02
 1  2  3     0.0000000000e+00
 1  3  1     9.8561107779e-02
 1  3  2     0.0000000000e+00
 1  3  3     9.8561107779e-02
 2  1  1     0.0000000000e+00
 2  1  2    -3.8995687014e-02
 2  1  3     0.0000000000e+00
 2  2  1    -4.8785420891e-02
 2  2  2     0.0000000000e+00
 2  2  3    -4.8785420891e-02
 2  3  1     0.0000000000e+00
 2  3  2    -3.8995687014e-02
 2  3  3     0.0000000000e+00
 3  1  1     9.8561107779e-02
 3  1  2     0.0000000000e+00
 3  1  3     9.8561107779e-02
 3  2  1     0.0000000000e+00
 3  2  2    -3.8995687014e-02
 3  2  3     0.0000000000e+00
 3  3  1     1.3902783638e-01
 3  3  2     0.0000000000e+00
 3  3  3     1.3498292124e-02

   28
0.0000000000e+00 0.0000000000e+00 0.0000000000e+00
-2.8050949536e+00 0.0000000000e+00 -2.8050949536e+00
     1      1      2
 1  1  1    -1.1566851559e-02
 1  1  2     1.3455684342e-02
 1  1  3     0.0000000000e+00
 1  2  1     2.3013222884e-03
 1  2  2     2.8768636913e-03
 1  2  3     0.0000000000e+00
 1  3  1     0.0000000000e+00
 1  3  2     0.0000000000e+00
 1  3  3     2.6428288816e-03
 2  1  1     2.3013222884e-03
 2  1  2     2.8768636913e-03
 2  1  3     0.0000000000e+00
 2  2  1     4.9859007341e-03
 2  2  2    -1.8102186267e-02
 2  2  3     0.0000000000e+00
 2  3  1     0.0000000000e+00
 2  3  2     0.0000000000e+00
 2  3  3    -3.0631507949e-03
 3  1  1     0.0000000000e+00
 3  1  2     0.0000000000e+00
 3  1  3     2.6428288816e-03
 3  2  1     0.0000000000e+00
 3  2  2     0.0000000000e+00
 3  2  3    -3.0631507949e-03
 3  3  1     1.2230890635e-02
 3  3  2    -1.1896934797e-02
 3  3  3     0.0000000000e+00

   29
0.0000000000e+00 0.0000000000e+00 0.0000000000e+00
-5.6101899072e+00 0.0000000000e+00 0.0000000000e+00
     1      1      1
 1  1  1     4.9493737787e-02
 1  1  2     0.0000000000e+00
 1  1  3     0.0000000000e+00
 1  2  1     0.0000000000e+00
 1  2  2     1.2831901899e-03
 1  2  3     0.0000000000e+00
 1  3  1     0.0000000000e+00
 1  3  2     0.0000000000e+00
 1  3  3     1.2831901899e-03
 2  1  1     0.0000000000e+00
 2  1  2     1.2831901899e-03
 2  1  3     0.0000000000e+00
 2  2  1    -3.8719536672e-02
 2  2  2     0.0000000000e+00
 2  2  3     0.0000000000e+00
 2  3  1     0.0000000000e+00
 2  3  2     0.0000000000e+00
 2  3  3     0.0000000000e+00
 3  1  1     0.0000000000e+00
 3  1  2     0.0000000000e+00
 3  1  3     1.2831901899e-03
 3  2  1     0.0000000000e+00
 3  2  2     0.0000000000e+00
 3  2  3     0.0000000000e+00
 3  3  1    -3.8719536672e-02
 3  3  2     0.0000000000e+00
 3  3  3     0.0000000000e+00

   30
0.0000000000e+00 0.0000000000e+00 0.0000000000e+00
2.8050949536e+00 0.0000000000e+00 -8.4152848609e+00
     1      1      2
 1  1  1     0.0000000000e+00
 1  1  2    -1.1896934797e-02
 1  1  3     1.2230890635e-02
 1  2  1    -3.0631507949e-03
 1  2  2     0.0000000000e+00
 1  2  3     0.0000000000e+00
 1  3  1     2.6428288816e-03
 1  3  2     0.0000000000e+00
 1  3  3     0.0000000000e+00
 2  1  1    -3.0631507949e-03
 2  1  2     0.0000000000e+00
 2  1  3     0.0000000000e+00
 2  2  1     0.0000000000e+00
 2  2  2    -1.8102186267e-02
 2  2  3     4.9859007341e-03
 2  3  1     0.0000000000e+00
 2  3  2     2.8768636913e-03
 2  3  3     2.3013222884e-03
 3  1  1     2.6428288816e-03
 3  1  2     0.0000000000e+00
 3  1  3     0.0000000000e+00
 3  2  1     0.0000000000e+00
 3  2  2     2.8768636913e-03
 3  2  3     2.3013222884e-03
 3  3  1     0.0000000000e+00
 3  3  2     1.3455684342e-02
 3  3  3    -1.1566851559e-02

   31
0.0000000000e+00 0.0000000000e+00 0.0000000000e+00
0.0000000000e+00 0.0000000000e+00 -5.6101899072e+00
     1      1      1
 1  1  1     0.0000000000e+00
 1  1  2     0.0000000000e+00
 1  1  3    -3.8719536672e-02
 1  2  1     0.0000000000e+00
 1  2  2     0.0000000000e+00
 1  2  3     0.0000000000e+00
 1  3  1     1.2831901899e-03
 1  3  2     0.0000000000e+00
 1  3  3     0.0000000000e+00
 2  1  1     0.0000000000e+00
 2  1  2     0.0000000000e+00
 2  1  3     0.0000000000e+00
 2  2  1     0.0000000000e+00
 2  2  2     0.0000000000e+00
 2  2  3    -3.8719536672e-02
 2  3  1     0.0000000000e+00
 2  3  2     1.2831901899e-03
 2  3  3     0.0000000000e+00
 3  1  1     1.2831901899e-03
 3  1  2     0.0000000000e+00
 3  1  3     0.0000000000e+00
 3  2  1     0.0000000000e+00
 3  2  2     1.2831901899e-03
 3  2  3     0.0000000000e+00
 3  3  1     0.0000000000e+00
 3  3  2     0.0000000000e+00
 3  3  3     4.9493737787e-02

   32
0.0000000000e+00 0.0000000000e+00 0.0000000000e+00
0.0000000000e+00 0.0000000000e+00 -5.6101899072e+00
     1      1      2
 1  1  1     1.6389873586e-02
 1  1  2     2.1442303475e-02
 1  1  3    -2.1442303475e-02
 1  2  1     1.6390231167e-02
 1  2  2    -1.6390231167e-02
 1  2  3     1.8316341295e-02
 1  3  1    -1.6390231167e-02
 1  3  2     1.8316341295e-02
 1  3  3    -1.6390231167e-02
 2  1  1     1.6390231167e-02
 2  1  2    -1.6390231167e-02
 2  1  3     1.8316341295e-02
 2  2  1    -2.1442303475e-02
 2  2  2    -1.6389873586e-02
 2  2  3    -2.1442303475e-02
 2  3  1     1.8316341295e-02
 2  3  2    -1.6390231167e-02
 2  3  3     1.6390231167e-02
 3  1  1    -1.6390231167e-02
 3  1  2     1.8316341295e-02
 3  1  3    -1.6390231167e-02
 3  2  1     1.8316341295e-02