 2918

    1
0.0000000000e+00 0.0000000000e+00 0.0000000000e+00
0.0000000000e+00 0.0000000000e+00 0.0000000000e+00
     1      1      1
 1  1  1     0.0000000000e+00
 1  1  2     0.0000000000e+00
 1  1  3     0.0000000000e+00
 1  2  1     0.0000000000e+00
 1  2  2     0.0000000000e+00
 1  2  3     0.0000000000e+00
 1  3  1     0.0000000000e+00
 1  3  2     0.0000000000e+00
 1  3  3     0.0000000000e+00
 2  1  1     0.0000000000e+00
 2  1  2     0.0000000000e+00
 2  1  3     0.0000000000e+00
 2  2  1     0.0000000000e+00
 2  2  2     0.0000000000e+00
 2  2  3     0.0000000000e+00
 2  3  1     0.0000000000e+00
 2  3  2     0.0000000000e+00
 2  3  3     0.0000000000e+00
 3  1  1     0.0000000000e+00
 3  1  2     0.0000000000e+00
 3  1  3     0.0000000000e+00
 3  2  1     0.0000000000e+00
 3  2  2     0.0000000000e+00
 3  2  3     0.0000000000e+00
 3  3  1     0.0000000000e+00
 3  3  2     0.0000000000e+00
 3  3  3     0.0000000000e+00

    2
0.0000000000e+00 0.0000000000e+00 0.0000000000e+00
0.0000000000e+00 0.0000000000e+00 0.0000000000e+00
     1      1      2
 1  1  1     2.0422166197e-02
 1  1  2     2.0408835789e-02
 1  1  3     2.0408835789e-02
 1  2  1     1.3963835229e-02
 1  2  2    -1.3963835229e-02
 1  2  3    -1.6809920526e-02
 1  3  1     1.3963835229e-02
 1  3  2    -1.6809920526e-02
 1  3  3    -1.3963835229e-02
 2  1  1     1.3963835229e-02
 2  1  2    -1.3963835229e-02
 2  1  3    -1.6809920526e-02
 2  2  1    -2.0408835789e-02
 2  2  2    -2.0422166197e-02
 2  2  3     2.0408835789e-02
 2  3  1    -1.6809920526e-02
 2  3  2     1.3963835229e-02
 2  3  3     1.3963835229e-02
 3  1  1     1.3963835229e-02
 3  1  2    -1.6809920526e-02
 3  1  3    -1.3963835229e-02
 3  2  1    -1.6809920526e-02
 3  2  2     1.3963835229e-02
 3  2  3     1.3963835229e-02
 3  3  1    -2.0408835789e-02
 3  3  2     2.0408835789e-02
 3  3  3    -2.0422166197e-02

    3
0.0000000000e+00 0.0000000000e+00 0.0000000000e+00
-2.8516018873e+00 0.0000000000e+00 2.8516018873e+00
     1      1      1
 1  1  1     1.9283274463e-03
 1  1  2     0.0000000000e+00
 1  1  3    -1.2965783003e-01
 1  2  1     0.0000000000e+00
 1  2  2    -3.8624684275e-02
 1  2  3     0.0000000000e+00
 1  3  1    -8.7846636143e-02
 1  3  2     0.0000000000e+00
 1  3  3     8.7846636143e-02
 2  1  1     0.0000000000e+00
 2  1  2    -3.8624684275e-02
 2  1  3     0.0000000000e+00
 2  2  1    -4.8757687032e-02
 2  2  2     0.0000000000e+00
 2  2  3     4.8757687032e-02
 2  3  1     0.0000000000e+00
 2  3  2     3.8624684275e-02
 2  3  3     0.0000000000e+00
 3  1  1    -8.7846636143e-02
 3  1  2     0.0000000000e+00
 3  1  3     8.7846636143e-02
 3  2  1     0.0000000000e+00
 3  2  2     3.8624684275e-02
 3  2  3     0.0000000000e+00
 3  3  1     1.2965783003e-01
 3  3  2     0.0000000000e+00
 3  3  3    -1.9283274463e-03

    4
0.0000000000e+00 0.0000000000e+00 0.0000000000e+00
5.7032037746e+00 0.0000000000e+00 -5.7032037746e+00
     1      1      2
 1  1  1    -2.0422166197e-02
 1  1  2     2.0408835789e-02
 1  1  3    -2.0408835789e-02
 1  2  1     1.3963835229e-02
 1  2  2     1.3963835229e-02
 1  2  3    -1.6809920526e-02
 1  3  1    -1.3963835229e-02
 1  3  2    -1.6809920526e-02
 1  3  3     1.3963835229e-02
 2  1  1     1.3963835229e-02
 2  1  2     1.3963835229e-02
 2  1  3    -1.6809920526e-02
 2  2  1     2.0408835789e-02
 2  2  2    -2.0422166197e-02
 2  2  3    -2.0408835789e-02
 2  3  1    -1.6809920526e-02
 2  3  2    -1.3963835229e-02
 2  3  3     1.3963835229e-02
 3  1  1    -1.3963835229e-02
 3  1  2    -1.6809920526e-02
 3  1  3     1.3963835229e-02
 3  2  1    -1.6809920526e-02
 3  2  2    -1.3963835229e-02
 3  2  3     1.3963835229e-02
 3  3  1     2.0408835789e-02
 3  3  2     2.0408835789e-02
 3  3  3     2.0422166197e-02

    5
0.0000000000e+00 0.0000000000e+00 0.0000000000e+00
2.8516018873e+00 0.0000000000e+00 -2.8516018873e+00
     1      1      1
 1  1  1    -1.9283274463e-03
 1  1  2     0.0000000000e+00
 1  1  3     1.2965783003e-01
 1  2  1     0.0000000000e+00
 1  2  2     3.8624684275e-02
 1  2  3     0.0000000000e+00
 1  3  1     8.7846636143e-02
 1  3  2     0.0000000000e+00
 1  3  3    -8.7846636143e-02
 2  1  1     0.0000000000e+00
 2  1  2     3.8624684275e-02
 2  1  3     0.0000000000e+00
 2  2  1     4.8757687032e-02
 2  2  2     0.0000000000e+00
 2  2  3    -4.8757687032e-02
 2  3  1     0.0000000000e+00
 2  3  2    -3.8624684275e-02
 2  3  3     0.0000000000e+00
 3  1  1     8.7846636143e-02
 3  1  2     0.0000000000e+00
 3  1  3    -8.7846636143e-02
 3  2  1     0.0000000000e+00
 3  2  2    -3.8624684275e-02
 3  2  3     0.0000000000e+00
 3  3  1    -1.2965783003e-01
 3  3  2     0.0000000000e+00
 3  3  3     1.9283274463e-03

    6
0.0000000000e+00 0.0000000000e+00 0.0000000000e+00
2.8516018873e+00 0.0000000000e+00 -2.8516018873e+00
     1      1      2
 1  1  1     0.0000000000e+00
 1  1  2     1.9196058026e-01
 1  1  3     0.0000000000e+00
 1  2  1     9.4161109838e-02
 1  2  2     0.0000000000e+00
 1  2  3     0.0000000000e+00
 1  3  1     0.0000000000e+00
 1  3  2     0.0000000000e+00
 1  3  3     0.0000000000e+00
 2  1  1     9.4161109838e-02
 2  1  2     0.0000000000e+00
 2  1  3     0.0000000000e+00
 2  2  1     0.0000000000e+00
 2  2  2    -3.8444156954e+00
 2  2  3     0.0000000000e+00
 2  3  1     0.0000000000e+00
 2  3  2     0.0000000000e+00
 2  3  3     9.4161109838e-02
 3  1  1     0.0000000000e+00
 3  1  2     0.0000000000e+00
 3  1  3     0.0000000000e+00
 3  2  1     0.0000000000e+00
 3  2  2     0.0000000000e+00
 3  2  3     9.4161109838e-02
 3  3  1     0.0000000000e+00
 3  3  2     1.9196058026e-01
 3  3  3     0.0000000000e+00

    7
0.0000000000e+00 0.0000000000e+00 0.0000000000e+00
0.0000000000e+00 2.8516018873e+00 2.8516018873e+00
     1      1      1
 1  1  1     0.0000000000e+00
 1  1  2     4.8757687032e-02
 1  1  3     4.8757687032e-02
 1  2  1     3.8624684275e-02
 1  2  2     0.0000000000e+00
 1  2  3     0.0000000000e+00
 1  3  1     3.8624684275e-02
 1  3  2     0.0000000000e+00
 1  3  3     0.0000000000e+00
 2  1  1     3.8624684275e-02
 2  1  2     0.0000000000e+00
 2  1  3     0.0000000000e+00
 2  2  1     0.0000000000e+00
 2  2  2    -1.9283274463e-03
 2  2  3    -1.2965783003e-01
 2  3  1     0.0000000000e+00
 2  3  2    -8.7846636143e-02
 2  3  3    -8.7846636143e-02
 3  1  1     3.8624684275e-02
 3  1  2     0.0000000000e+00
 3  1  3     0.0000000000e+00
 3  2  1     0.0000000000e+00
 3  2  2    -8.7846636143e-02
 3  2  3    -8.7846636143e-02
 3  3  1     0.0000000000e+00
 3  3  2    -1.2965783003e-01
 3  3  3    -1.9283274463e-03

    8
0.0000000000e+00 0.0000000000e+00 0.0000000000e+00
5.7032037746e+00 2.8516018873e+00 -2.8516018873e+00
     1      1      2
 1  1  1    -1.8734200819e-02
 1  1  2    -4.9702373103e-03
 1  1  3     0.0000000000e+00
 1  2  1    -3.6458791066e-03
 1  2  2     1.1583369972e-03
 1  2  3     0.0000000000e+00
 1  3  1     0.0000000000e+00
 1  3  2     0.0000000000e+00
 1  3  3    -5.1376931332e-03
 2  1  1    -3.6458791066e-03
 2  1  2     1.1583369972e-03
 2  1  3     0.0000000000e+00
 2  2  1     1.5310661896e-02
 2  2  2     1.3129260927e-02
 2  2  3     0.0000000000e+00
 2  3  1     0.0000000000e+00
 2  3  2     0.0000000000e+00
 2  3  3    -4.6977132527e-03
 3  1  1     0.0000000000e+00
 3  1  2     0.0000000000e+00
 3  1  3    -5.1376931332e-03
 3  2  1     0.0000000000e+00
 3  2  2     0.0000000000e+00
 3  2  3    -4.6977132527e-03
 3  3  1    -1.2112973341e-02
 3  3  2    -1.2149304118e-02
 3  3  3     0.0000000000e+00

    9
0.0000000000e+00 0.0000000000e+00 0.0000000000e+00
2.8516018873e+00 2.8516018873e+00 0.0000000000e+00
     1      1      1
 1  1  1    -1.9283274463e-03
 1  1  2    -1.2965783003e-01
 1  1  3     0.0000000000e+00
 1  2  1    -8.7846636143e-02
 1  2  2    -8.7846636143e-02
 1  2  3     0.0000000000e+00
 1  3  1     0.0000000000e+00
 1  3  2     0.0000000000e+00
 1  3  3     3.8624684275e-02
 2  1  1    -8.7846636143e-02
 2  1  2    -8.7846636143e-02
 2  1  3     0.0000000000e+00
 2  2  1    -1.2965783003e-01
 2  2  2    -1.9283274463e-03
 2  2  3     0.0000000000e+00
 2  3  1     0.0000000000e+00
 2  3  2     0.0000000000e+00
 2  3  3     3.8624684275e-02
 3  1  1     0.0000000000e+00
 3  1  2     0.0000000000e+00
 3  1  3     3.8624684275e-02
 3  2  1     0.0000000000e+00
 3  2  2     0.0000000000e+00
 3  2  3     3.8624684275e-02
 3  3  1     4.8757687032e-02
 3  3  2     4.8757687032e-02
 3  3  3     0.0000000000e+00

   10
0.0000000000e+00 0.0000000000e+00 0.0000000000e+00
2.8516018873e+00 2.8516018873e+00 0.0000000000e+00
     1      1      2
 1  1  1     0.0000000000e+00
 1  1  2    -1.2149304118e-02
 1  1  3    -1.2112973341e-02
 1  2  1    -4.6977132527e-03
 1  2  2     0.0000000000e+00
 1  2  3     0.0000000000e+00
 1  3  1    -5.1376931332e-03
 1  3  2     0.0000000000e+00
 1  3  3     0.0000000000e+00
 2  1  1    -4.6977132527e-03
 2  1  2     0.0000000000e+00
 2  1  3     0.0000000000e+00
 2  2  1     0.0000000000e+00
 2  2  2     1.3129260927e-02
 2  2  3     1.5310661896e-02
 2  3  1     0.0000000000e+00
 2  3  2     1.1583369972e-03
 2  3  3    -3.6458791066e-03
 3  1  1    -5.1376931332e-03
 3  1  2     0.0000000000e+00
 3  1  3     0.0000000000e+00
 3  2  1     0.0000000000e+00
 3  2  2     1.1583369972e-03
 3  2  3    -3.6458791066e-03
 3  3  1     0.0000000000e+00
 3  3  2    -4.9702373103e-03
 3  3  3    -1.8734200819e-02

   11
0.0000000000e+00 0.0000000000e+00 0.0000000000e+00
0.0000000000e+00 -5.7032037746e+00 -5.7032037746e+00
     1      1      2
 1  1  1     2.0422166197e-02
 1  1  2    -2.0408835789e-02
 1  1  3    -2.0408835789e-02
 1  2  1    -1.3963835229e-02
 1  2  2    -1.3963835229e-02
 1  2  3    -1.6809920526e-02
 1  3  1    -1.3963835229e-02
 1  3  2    -1.6809920526e-02
 1  3  3    -1.3963835229e-02
 2  1  1    -1.3963835229e-02
 2  1  2    -1.3963835229e-02
 2  1  3    -1.6809920526e-02
 2  2  1    -2.0408835789e-02
 2  2  2     2.0422166197e-02
 2  2  3    -2.0408835789e-02
 2  3  1    -1.6809920526e-02
 2  3  2    -1.3963835229e-02
 2  3  3    -1.3963835229e-02
 3  1  1    -1.3963835229e-02
 3  1  2    -1.6809920526e-02
 3  1  3    -1.3963835229e-02
 3  2  1    -1.6809920526e-02
 3  2  2    -1.3963835229e-02
 3  2  3    -1.3963835229e-02
 3  3  1    -2.0408835789e-02
 3  3  2    -2.0408835789e-02
 3  3  3     2.0422166197e-02

   12
0.0000000000e+00 0.0000000000e+00 0.0000000000e+00
-2.8516018873e+00 -5.7032037746e+00 -2.8516018873e+00
     1      1      2
 1  1  1    -1.3129260927e-02
 1  1  2    -1.5310661896e-02
 1  1  3     0.0000000000e+00
 1  2  1    -1.1583369972e-03
 1  2  2     3.6458791066e-03
 1  2  3     0.0000000000e+00
 1  3  1     0.0000000000e+00
 1  3  2     0.0000000000e+00
 1  3  3     4.6977132527e-03
 2  1  1    -1.1583369972e-03
 2  1  2     3.6458791066e-03
 2  1  3     0.0000000000e+00
 2  2  1     4.9702373103e-03
 2  2  2     1.8734200819e-02
 2  2  3     0.0000000000e+00
 2  3  1     0.0000000000e+00
 2  3  2     0.0000000000e+00
 2  3  3     5.1376931332e-03
 3  1  1     0.0000000000e+00
 3  1  2     0.0000000000e+00
 3  1  3     4.6977132527e-03
 3  2  1     0.0000000000e+00
 3  2  2     0.0000000000e+00
 3  2  3     5.1376931332e-03
 3  3  1     1.2149304118e-02
 3  3  2     1.2112973341e-02
 3  3  3     0.0000000000e+00

   13
0.0000000000e+00 0.0000000000e+00 0.0000000000e+00
2.8516018873e+00 -5.7032037746e+00 -8.5548056618e+00
     1      1      2
 1  1  1     0.0000000000e+00
 1  1  2     1.2112973341e-02
 1  1  3     1.2149304118e-02
 1  2  1     5.1376931332e-03
 1  2  2     0.0000000000e+00
 1  2  3     0.0000000000e+00
 1  3  1     4.6977132527e-03
 1  3  2     0.0000000000e+00
 1  3  3     0.0000000000e+00
 2  1  1     5.1376931332e-03
 2  1  2     0.0000000000e+00
 2  1  3     0.0000000000e+00
 2  2  1     0.0000000000e+00
 2  2  2     1.8734200819e-02
 2  2  3     4.9702373103e-03
 2  3  1     0.0000000000e+00
 2  3  2     3.6458791066e-03
 2  3  3    -1.1583369972e-03
 3  1  1     4.6977132527e-03
 3  1  2     0.0000000000e+00
 3  1  3     0.0000000000e+00
 3  2  1     0.0000000000e+00
 3  2  2     3.6458791066e-03
 3  2  3    -1.1583369972e-03
 3  3  1     0.0000000000e+00
 3  3  2    -1.5310661896e-02
 3  3  3    -1.3129260927e-02

   14
0.0000000000e+00 0.0000000000e+00 0.0000000000e+00
0.0000000000e+00 -2.8516018873e+00 -2.8516018873e+00
     1      1      1
 1  1  1     0.0000000000e+00
 1  1  2    -4.8757687032e-02
 1  1  3    -4.8757687032e-02
 1  2  1    -3.8624684275e-02
 1  2  2     0.0000000000e+00
 1  2  3     0.0000000000e+00
 1  3  1    -3.8624684275e-02
 1  3  2     0.0000000000e+00
 1  3  3     0.0000000000e+00
 2  1  1    -3.8624684275e-02
 2  1  2     0.0000000000e+00
 2  1  3     0.0000000000e+00
 2  2  1     0.0000000000e+00
 2  2  2     1.9283274463e-03
 2  2  3     1.2965783003e-01
 2  3  1     0.0000000000e+00
 2  3  2     8.7846636143e-02
 2  3  3     8.7846636143e-02
 3  1  1    -3.8624684275e-02
 3  1  2     0.0000000000e+00
 3  1  3     0.0000000000e+00
 3  2  1     0.0000000000e+00
 3  2  2     8.7846636143e-02
 3  2  3     8.7846636143e-02
 3  3  1     0.0000000000e+00
 3  3  2     1.2965783003e-01
 3  3  3     1.9283274463e-03

   15
0.0000000000e+00 0.0000000000e+00 0.0000000000e+00
0.0000000000e+00 -2.8516018873e+00 -2.8516018873e+00
     1      1      2
 1  1  1     3.8444156954e+00
 1  1  2     0.0000000000e+00
 1  1  3     0.0000000000e+00
 1  2  1     0.0000000000e+00
 1  2  2    -9.4161109838e-02
 1  2  3     0.0000000000e+00
 1  3  1     0.0000000000e+00
 1  3  2     0.0000000000e+00
 1  3  3    -9.4161109838e-02
 2  1  1     0.0000000000e+00
 2  1  2    -9.4161109838e-02
 2  1  3     0.0000000000e+00
 2  2  1    -1.9196058026e-01
 2  2  2     0.0000000000e+00
 2  2  3     0.0000000000e+00
 2  3  1     0.0000000000e+00
 2  3  2     0.0000000000e+00
 2  3  3     0.0000000000e+00
 3  1  1     0.0000000000e+00
 3  1  2     0.0000000000e+00
 3  1  3    -9.4161109838e-02
 3  2  1     0.0000000000e+00
 3  2  2     0.0000000000e+00
 3  2  3     0.0000000000e+00
 3  3  1    -1.9196058026e-01
 3  3  2     0.0000000000e+00
 3  3  3     0.0000000000e+00

   16
0.0000000000e+00 0.0000000000e+00 0.0000000000e+00
-2.8516018873e+00 -2.8516018873e+00 0.0000000000e+00
     1      1      1
 1  1  1     1.9283274463e-03
 1  1  2     1.2965783003e-01
 1  1  3     0.0000000000e+00
 1  2  1     8.7846636143e-02
 1  2  2     8.7846636143e-02
 1  2  3     0.0000000000e+00
 1  3  1     0.0000000000e+00
 1  3  2     0.0000000000e+00
 1  3  3    -3.8624684275e-02
 2  1  1     8.7846636143e-02
 2  1  2     8.7846636143e-02
 2  1  3     0.0000000000e+00
 2  2  1     1.2965783003e-01
 2  2  2     1.9283274463e-03
 2  2  3     0.0000000000e+00
 2  3  1     0.0000000000e+00
 2  3  2     0.0000000000e+00
 2  3  3    -3.8624684275e-02
 3  1  1     0.0000000000e+00
 3  1  2     0.0000000000e+00
 3  1  3    -3.8624684275e-02
 3  2  1     0.0000000000e+00
 3  2  2     0.0000000000e+00
 3  2  3    -3.8624684275e-02
 3  3  1    -4.8757687032e-02
 3  3  2    -4.8757687032e-02
 3  3  3     0.0000000000e+00

   17
0.0000000000e+00 0.0000000000e+00 0.0000000000e+00
-2.8516018873e+00 -2.8516018873e+00 0.0000000000e+00
     1      1      2
 1  1  1    -1.3129260927e-02
 1  1  2     0.0000000000e+00
 1  1  3     1.5310661896e-02
 1  2  1     0.0000000000e+00
 1  2  2     4.6977132527e-03
 1  2  3     0.0000000000e+00
 1  3  1     1.1583369972e-03
 1  3  2     0.0000000000e+00
 1  3  3     3.6458791066e-03
 2  1  1     0.0000000000e+00
 2  1  2     4.6977132527e-03
 2  1  3     0.0000000000e+00
 2  2  1     1.2149304118e-02
 2  2  2     0.0000000000e+00
 2  2  3    -1.2112973341e-02
 2  3  1     0.0000000000e+00
 2  3  2    -5.1376931332e-03
 2  3  3     0.0000000000e+00
 3  1  1     1.1583369972e-03
 3  1  2     0.0000000000e+00
 3  1  3     3.6458791066e-03
 3  2  1     0.0000000000e+00
 3  2  2    -5.1376931332e-03
 3  2  3     0.0000000000e+00
 3  3  1     4.9702373103e-03
 3  3  2     0.0000000000e+00
 3  3  3    -1.8734200819e-02

   18
0.0000000000e+00 0.0000000000e+00 0.0000000000e+00
5.7032037746e+00 -2.8516018873e+00 -8.5548056618e+00
     1      1      2
 1  1  1    -1.8734200819e-02
 1  1  2     0.0000000000e+00
 1  1  3     4.9702373103e-03
 1  2  1     0.0000000000e+00
 1  2  2    -5.1376931332e-03
 1  2  3     0.0000000000e+00
 1  3  1     3.6458791066e-03
 1  3  2     0.0000000000e+00
 1  3  3     1.1583369972e-03
 2  1  1     0.0000000000e+00
 2  1  2    -5.1376931332e-03
 2  1  3     0.0000000000e+00
 2  2  1    -1.2112973341e-02
 2  2  2     0.0000000000e+00
 2  2  3     1.2149304118e-02
 2  3  1     0.0000000000e+00
 2  3  2     4.6977132527e-03
 2  3  3     0.0000000000e+00
 3  1  1     3.6458791066e-03
 3  1  2     0.0000000000e+00
 3  1  3     1.1583369972e-03
 3  2  1     0.0000000000e+00
 3  2  2     4.6977132527e-03
 3  2  3     0.0000000000e+00
 3  3  1     1.5310661896e-02
 3  3  2     0.0000000000e+00
 3  3  3    -1.3129260927e-02

   19
0.0000000000e+00 0.0000000000e+00 0.0000000000e+00
2.8516018873e+00 -2.8516018873e+00 -5.7032037746e+00
     1      1      2
 1  1  1     0.0000000000e+00
 1  1  2     0.0000000000e+00
 1  1  3    -1.9196058026e-01
 1  2  1     0.0000000000e+00
 1  2  2     0.0000000000e+00
 1  2  3     0.0000000000e+00
 1  3  1    -9.4161109838e-02
 1  3  2     0.0000000000e+00
 1  3  3     0.0000000000e+00
 2  1  1     0.0000000000e+00
 2  1  2     0.0000000000e+00
 2  1  3     0.0000000000e+00
 2  2  1     0.0000000000e+00
 2  2  2     0.0000000000e+00
 2  2  3    -1.9196058026e-01
 2  3  1     0.0000000000e+00
 2  3  2    -9.4161109838e-02
 2  3  3     0.0000000000e+00
 3  1  1    -9.4161109838e-02
 3  1  2     0.0000000000e+00
 3  1  3     0.0000000000e+00
 3  2  1     0.0000000000e+00
 3  2  2    -9.4161109838e-02
 3  2  3     0.0000000000e+00
 3  3  1     0.0000000000e+00
 3  3  2     0.0000000000e+00
 3  3  3     3.8444156954e+00

   20
0.0000000000e+00 0.0000000000e+00 0.0000000000e+00
-2.8516018873e+00 2.8516018873e+00 0.0000000000e+00
     1      1      1
 1  1  1     1.9283274463e-03
 1  1  2    -1.2965783003e-01
 1  1  3     0.0000000000e+00
 1  2  1    -8.7846636143e-02
 1  2  2     8.7846636143e-02
 1  2  3     0.0000000000e+00
 1  3  1     0.0000000000e+00
 1  3  2     0.0000000000e+00
 1  3  3    -3.8624684275e-02
 2  1  1    -8.7846636143e-02
 2  1  2     8.7846636143e-02
 2  1  3     0.0000000000e+00
 2  2  1     1.2965783003e-01
 2  2  2    -1.9283274463e-03
 2  2  3     0.0000000000e+00
 2  3  1     0.0000000000e+00
 2  3  2     0.0000000000e+00
 2  3  3     3.8624684275e-02
 3  1  1     0.0000000000e+00
 3  1  2     0.0000000000e+00
 3  1  3    -3.8624684275e-02
 3  2  1     0.0000000000e+00
 3  2  2     0.0000000000e+00
 3  2  3     3.8624684275e-02
 3  3  1    -4.8757687032e-02
 3  3  2     4.8757687032e-02
 3  3  3     0.0000000000e+00

   21
0.0000000000e+00 0.0000000000e+00 0.0000000000e+00
2.8516018873e+00 2.8516018873e+00 -5.7032037746e+00
     1      1      2
 1  1  1     0.0000000000e+00
 1  1  2    -1.2149304118e-02
 1  1  3     1.2112973341e-02
 1  2  1    -4.6977132527e-03
 1  2  2     0.0000000000e+00
 1  2  3     0.0000000000e+00
 1  3  1     5.1376931332e-03
 1  3  2     0.0000000000e+00
 1  3  3     0.0000000000e+00
 2  1  1    -4.6977132527e-03
 2  1  2     0.0000000000e+00
 2  1  3     0.0000000000e+00
 2  2  1     0.0000000000e+00
 2  2  2     1.3129260927e-02
 2  2  3    -1.5310661896e-02
 2  3  1     0.0000000000e+00
 2  3  2    -1.1583369972e-03
 2  3  3    -3.6458791066e-03
 3  1  1     5.1376931332e-03
 3  1  2     0.0000000000e+00
 3  1  3     0.0000000000e+00
 3  2  1     0.0000000000e+00
 3  2  2    -1.1583369972e-03
 3  2  3    -3.6458791066e-03
 3  3  1     0.0000000000e+00
 3  3  2    -4.9702373103e-03
 3  3  3     1.8734200819e-02

   22
0.0000000000e+00 0.0000000000e+00 0.0000000000e+00
0.0000000000e+00 2.8516018873e+00 -2.8516018873e+00
     1      1      1
 1  1  1     0.0000000000e+00
 1  1  2     4.8757687032e-02
 1  1  3    -4.8757687032e-02
 1  2  1     3.8624684275e-02
 1  2  2     0.0000000000e+00
 1  2  3     0.0000000000e+00
 1  3  1    -3.8624684275e-02
 1  3  2     0.0000000000e+00
 1  3  3     0.0000000000e+00
 2  1  1     3.8624684275e-02
 2  1  2     0.0000000000e+00
 2  1  3     0.0000000000e+00
 2  2  1     0.0000000000e+00
 2  2  2    -1.9283274463e-03
 2  2  3     1.2965783003e-01
 2  3  1     0.0000000000e+00
 2  3  2     8.7846636143e-02
 2  3  3    -8.7846636143e-02
 3  1  1    -3.8624684275e-02
 3  1  2     0.0000000000e+00
 3  1  3     0.0000000000e+00
 3  2  1     0.0000000000e+00
 3  2  2     8.7846636143e-02
 3  2  3    -8.7846636143e-02
 3  3  1     0.0000000000e+00
 3  3  2    -1.2965783003e-01
 3  3  3     1.9283274463e-03

   23
0.0000000000e+00 0.0000000000e+00 0.0000000000e+00
0.0000000000e+00 2.8516018873e+00 -2.8516018873e+00
     1      1      2
 1  1  1     1.8734200819e-02
 1  1  2    -4.9702373103e-03
 1  1  3     0.0000000000e+00
 1  2  1    -3.6458791066e-03
 1  2  2    -1.1583369972e-03
 1  2  3     0.0000000000e+00
 1  3  1     0.0000000000e+00
 1  3  2     0.0000000000e+00
 1  3  3     5.1376931332e-03
 2  1  1    -3.6458791066e-03
 2  1  2    -1.1583369972e-03
 2  1  3     0.0000000000e+00
 2  2  1    -1.5310661896e-02
 2  2  2     1.3129260927e-02
 2  2  3     0.0000000000e+00
 2  3  1     0.0000000000e+00
 2  3  2     0.0000000000e+00
 2  3  3    -4.6977132527e-03
 3  1  1     0.0000000000e+00
 3  1  2     0.0000000000e+00
 3  1  3     5.1376931332e-03
 3  2  1     0.0000000000e+00
 3  2  2     0.0000000000e+00
 3  2  3    -4.6977132527e-03
 3  3  1     1.2112973341e-02
 3  3  2    -1.2149304118e-02
 3  3  3     0.0000000000e+00

   24
0.0000000000e+00 0.0000000000e+00 0.0000000000e+00
0.0000000000e+00 5.7032037746e+00 0.0000000000e+00
     1      1      1
 1  1  1     0.0000000000e+00
 1  1  2     4.5144856169e-02
 1  1  3     0.0000000000e+00
 1  2  1    -6.4308639083e-04
 1  2  2     0.0000000000e+00
 1  2  3     0.0000000000e+00
 1  3  1     0.0000000000e+00
 1  3  2     0.0000000000e+00
 1  3  3     0.0000000000e+00
 2  1  1    -6.4308639083e-04
 2  1  2     0.0000000000e+00
 2  1  3     0.0000000000e+00
 2  2  1     0.0000000000e+00
 2  2  2    -4.4994307079e-02
 2  2  3     0.0000000000e+00
 2  3  1     0.0000000000e+00
 2  3  2     0.0000000000e+00
 2  3  3    -6.4308639083e-04
 3  1  1     0.0000000000e+00
 3  1  2     0.0000000000e+00
 3  1  3     0.0000000000e+00
 3  2  1     0.0000000000e+00
 3  2  2     0.0000000000e+00
 3  2  3    -6.4308639083e-04
 3  3  1     0.0000000000e+00
 3  3  2     4.5144856169e-02
 3  3  3     0.0000000000e+00

   25
0.0000000000e+00 0.0000000000e+00 0.0000000000e+00
-2.8516018873e+00 -2.8516018873e+00 -5.7032037746e+00
     1      1      2
 1  1  1    -1.3129260927e-02
 1  1  2     0.0000000000e+00
 1  1  3    -1.5310661896e-02
 1  2  1     0.0000000000e+00
 1  2  2     4.6977132527e-03
 1  2  3     0.0000000000e+00
 1  3  1    -1.1583369972e-03
 1  3  2     0.0000000000e+00
 1  3  3     3.6458791066e-03
 2  1  1     0.0000000000e+00
 2  1  2     4.6977132527e-03
 2  1  3     0.0000000000e+00
 2  2  1     1.2149304118e-02
 2  2  2     0.0000000000e+00
 2  2  3     1.2112973341e-02
 2  3  1     0.0000000000e+00
 2  3  2     5.1376931332e-03
 2  3  3     0.0000000000e+00
 3  1  1    -1.1583369972e-03
 3  1  2     0.0000000000e+00
 3  1  3     3.6458791066e-03
 3  2  1     0.0000000000e+00
 3  2  2     5.1376931332e-03
 3  2  3     0.0000000000e+00
 3  3  1     4.9702373103e-03
 3  3  2     0.0000000000e+00
 3  3  3     1.8734200819e-02

   26
0.0000000000e+00 0.0000000000e+00 0.0000000000e+00
0.0000000000e+00 -2.8516018873e+00 -8.5548056618e+00
     1      1      2
 1  1  1     1.8734200819e-02
 1  1  2     0.0000000000e+00
 1  1  3     4.9702373103e-03
 1  2  1     0.0000000000e+00
 1  2  2     5.1376931332e-03
 1  2  3     0.0000000000e+00
 1  3  1     3.6458791066e-03
 1  3  2     0.0000000000e+00
 1  3  3    -1.1583369972e-03
 2  1  1     0.0000000000e+00
 2  1  2     5.1376931332e-03
 2  1  3     0.0000000000e+00
 2  2  1     1.2112973341e-02
 2  2  2     0.0000000000e+00
 2  2  3     1.2149304118e-02
 2  3  1     0.0000000000e+00
 2  3  2     4.6977132527e-03
 2  3  3     0.0000000000e+00
 3  1  1     3.6458791066e-03
 3  1  2     0.0000000000e+00
 3  1  3    -1.1583369972e-03
 3  2  1     0.0000000000e+00
 3  2  2     4.6977132527e-03
 3  2  3     0.0000000000e+00
 3  3  1    -1.5310661896e-02
 3  3  2     0.0000000000e+00
 3  3  3    -1.3129260927e-02

   27
0.0000000000e+00 0.0000000000e+00 0.0000000000e+00
-2.8516018873e+00 0.0000000000e+00 -2.8516018873e+00
     1      1      1
 1  1  1     1.9283274463e-03
 1  1  2     0.0000000000e+00
 1  1  3     1.2965783003e-01
 1  2  1     0.0000000000e+00
 1  2  2    -3.8624684275e-02
 1  2  3     0.0000000000e+00
 1  3  1     8.7846636143e-02
 1  3  2     0.0000000000e+00
 1  3  3     8.7846636143e-02
 2  1  1     0.0000000000e+00
 2  1  2    -3.8624684275e-02
 2  1  3     0.0000000000e+00
 2  2  1    -4.8757687032e-02
 2  2  2     0.0000000000e+00
 2  2  3    -4.8757687032e-02
 2  3  1     0.0000000000e+00
 2  3  2    -3.8624684275e-02
 2  3  3     0.0000000000e+00
 3  1  1     8.7846636143e-02
 3  1  2     0.0000000000e+00
 3  1  3     8.7846636143e-02
 3  2  1     0.0000000000e+00
 3  2  2    -3.8624684275e-02
 3  2  3     0.0000000000e+00
 3  3  1     1.2965783003e-01
 3  3  2     0.0000000000e+00
 3  3  3     1.9283274463e-03

   28
0.0000000000e+00 0.0000000000e+00 0.0000000000e+00
-2.8516018873e+00 0.0000000000e+00 -2.8516018873e+00
     1      1      2
 1  1  1    -1.3129260927e-02
 1  1  2     1.5310661896e-02
 1  1  3     0.0000000000e+00
 1  2  1     1.1583369972e-03
 1  2  2     3.6458791066e-03
 1  2  3     0.0000000000e+00
 1  3  1     0.0000000000e+00
 1  3  2     0.0000000000e+00
 1  3  3     4.6977132527e-03
 2  1  1     1.1583369972e-03
 2  1  2     3.6458791066e-03
 2  1  3     0.0000000000e+00
 2  2  1     4.9702373103e-03
 2  2  2    -1.8734200819e-02
 2  2  3     0.0000000000e+00
 2  3  1     0.0000000000e+00
 2  3  2     0.0000000000e+00
 2  3  3    -5.1376931332e-03
 3  1  1     0.0000000000e+00
 3  1  2     0.0000000000e+00
 3  1  3     4.6977132527e-03
 3  2  1     0.0000000000e+00
 3  2  2     0.0000000000e+00
 3  2  3    -5.1376931332e-03
 3  3  1     1.2149304118e-02
 3  3  2    -1.2112973341e-02
 3  3  3     0.0000000000e+00

   29
0.0000000000e+00 0.0000000000e+00 0.0000000000e+00
-5.7032037746e+00 0.0000000000e+00 0.0000000000e+00
     1      1      1
 1  1  1     4.4994307079e-02
 1  1  2     0.0000000000e+00
 1  1  3     0.0000000000e+00
 1  2  1     0.0000000000e+00
 1  2  2     6.4308639083e-04
 1  2  3     0.0000000000e+00
 1  3  1     0.0000000000e+00
 1  3  2     0.0000000000e+00
 1  3  3     6.4308639083e-04
 2  1  1     0.0000000000e+00
 2  1  2     6.4308639083e-04
 2  1  3     0.0000000000e+00
 2  2  1    -4.5144856169e-02
 2  2  2     0.0000000000e+00
 2  2  3     0.0000000000e+00
 2  3  1     0.0000000000e+00
 2  3  2     0.0000000000e+00
 2  3  3     0.0000000000e+00
 3  1  1     0.0000000000e+00
 3  1  2     0.0000000000e+00
 3  1  3     6.4308639083e-04
 3  2  1     0.0000000000e+00
 3  2  2     0.0000000000e+00
 3  2  3     0.0000000000e+00
 3  3  1    -4.5144856169e-02
 3  3  2     0.0000000000e+00
 3  3  3     0.0000000000e+00

   30
0.0000000000e+00 0.0000000000e+00 0.0000000000e+00
2.8516018873e+00 0.0000000000e+00 -8.5548056618e+00
     1      1      2
 1  1  1     0.0000000000e+00
 1  1  2    -1.2112973341e-02
 1  1  3     1.2149304118e-02
 1  2  1    -5.1376931332e-03
 1  2  2     0.0000000000e+00
 1  2  3     0.0000000000e+00
 1  3  1     4.6977132527e-03
 1  3  2     0.0000000000e+00
 1  3  3     0.0000000000e+00
 2  1  1    -5.1376931332e-03
 2  1  2     0.0000000000e+00
 2  1  3     0.0000000000e+00
 2  2  1     0.0000000000e+00
 2  2  2    -1.8734200819e-02
 2  2  3     4.9702373103e-03
 2  3  1     0.0000000000e+00
 2  3  2     3.6458791066e-03
 2  3  3     1.1583369972e-03
 3  1  1     4.6977132527e-03
 3  1  2     0.0000000000e+00
 3  1  3     0.0000000000e+00
 3  2  1     0.0000000000e+00
 3  2  2     3.6458791066e-03
 3  2  3     1.1583369972e-03
 3  3  1     0.0000000000e+00
 3  3  2     1.5310661896e-02
 3  3  3    -1.3129260927e-02

   31
0.0000000000e+00 0.0000000000e+00 0.0000000000e+00
0.0000000000e+00 0.0000000000e+00 -5.7032037746e+00
     1      1      1
 1  1  1     0.0000000000e+00
 1  1  2     0.0000000000e+00
 1  1  3    -4.5144856169e-02
 1  2  1     0.0000000000e+00
 1  2  2     0.0000000000e+00
 1  2  3     0.0000000000e+00
 1  3  1     6.4308639083e-04
 1  3  2     0.0000000000e+00
 1  3  3     0.0000000000e+00
 2  1  1     0.0000000000e+00
 2  1  2     0.0000000000e+00
 2  1  3     0.0000000000e+00
 2  2  1     0.0000000000e+00
 2  2  2     0.0000000000e+00
 2  2  3    -4.5144856169e-02
 2  3  1     0.0000000000e+00
 2  3  2     6.4308639083e-04
 2  3  3     0.0000000000e+00
 3  1  1     6.4308639083e-04
 3  1  2     0.0000000000e+00
 3  1  3     0.0000000000e+00
 3  2  1     0.0000000000e+00
 3  2  2     6.4308639083e-04
 3  2  3     0.0000000000e+00
 3  3  1     0.0000000000e+00
 3  3  2     0.0000000000e+00
 3  3  3     4.4994307079e-02

   32
0.0000000000e+00 0.0000000000e+00 0.0000000000e+00
0.0000000000e+00 0.0000000000e+00 -5.7032037746e+00
     1      1      2
 1  1  1     2.0422166197e-02
 1  1  2     2.0408835789e-02
 1  1  3    -2.0408835789e-02
 1  2  1     1.3963835229e-02
 1  2  2    -1.3963835229e-02
 1  2  3     1.6809920526e-02
 1  3  1    -1.3963835229e-02
 1  3  2     1.6809920526e-02
 1  3  3    -1.3963835229e-02
 2  1  1     1.3963835229e-02
 2  1  2    -1.3963835229e-02
 2  1  3     1.6809920526e-02
 2  2  1    -2.0408835789e-02
 2  2  2    -2.0422166197e-02
 2  2  3    -2.0408835789e-02
 2  3  1     1.6809920526e-02
 2  3  2    -1.3963835229e-02
 2  3  3     1.3963835229e-02
 3  1  1    -1.3963835229e-02
 3  1  2     1.6809920526e-02
 3  1  3    -1.3963835229e-02
 3  2  1     1.6809920526e-02