 1824

    1
0.0000000000e+00 0.0000000000e+00 0.0000000000e+00
0.0000000000e+00 0.0000000000e+00 0.0000000000e+00
     1      1      1
 1  1  1     0.0000000000e+00
 1  1  2     0.0000000000e+00
 1  1  3     0.0000000000e+00
 1  2  1     0.0000000000e+00
 1  2  2     0.0000000000e+00
 1  2  3     0.0000000000e+00
 1  3  1     0.0000000000e+00
 1  3  2     0.0000000000e+00
 1  3  3     0.0000000000e+00
 2  1  1     0.0000000000e+00
 2  1  2     0.0000000000e+00
 2  1  3     0.0000000000e+00
 2  2  1     0.0000000000e+00
 2  2  2     0.0000000000e+00
 2  2  3     0.0000000000e+00
 2  3  1     0.0000000000e+00
 2  3  2     0.0000000000e+00
 2  3  3     0.0000000000e+00
 3  1  1     0.0000000000e+00
 3  1  2     0.0000000000e+00
 3  1  3     0.0000000000e+00
 3  2  1     0.0000000000e+00
 3  2  2     0.0000000000e+00
 3  2  3     0.0000000000e+00
 3  3  1     0.0000000000e+00
 3  3  2     0.0000000000e+00
 3  3  3     0.0000000000e+00

    2
0.0000000000e+00 0.0000000000e+00 0.0000000000e+00
0.0000000000e+00 0.0000000000e+00 0.0000000000e+00
     1      1      3
 1  1  1    -1.8282129918e-01
 1  1  2     7.6226456055e-01
 1  1  3    -9.4929200461e+00
 1  2  1     1.4347155396e+00
 1  2  2    -4.4918018712e-01
 1  2  3     4.9503983830e+00
 1  3  1    -9.7777201243e+00
 1  3  2     5.9453596999e+00
 1  3  3     1.0272971234e+01
 2  1  1     1.4347155396e+00
 2  1  2    -4.4918018712e-01
 2  1  3     4.9503983830e+00
 2  2  1     7.1553907385e-01
 2  2  2    -1.0698293111e+00
 2  2  3    -3.7766923696e+00
 2  3  1     5.9453596999e+00
 2  3  2    -2.9126100801e+00
 2  3  3    -5.9311027081e+00
 3  1  1    -9.7777201243e+00
 3  1  2     5.9453596999e+00
 3  1  3     1.0272971234e+01
 3  2  1     5.9453596999e+00
 3  2  2    -2.9126100801e+00
 3  2  3    -5.9311027081e+00
 3  3  1     1.0223979183e+01
 3  3  2    -5.9028171341e+00
 3  3  3    -1.0847208028e+01

    3
0.0000000000e+00 0.0000000000e+00 0.0000000000e+00
0.0000000000e+00 0.0000000000e+00 0.0000000000e+00
     1      1      4
 1  1  1     0.0000000000e+00
 1  1  2     0.0000000000e+00
 1  1  3    -3.9515835670e-03
 1  2  1     0.0000000000e+00
 1  2  2     0.0000000000e+00
 1  2  3    -6.9733426835e-13
 1  3  1     2.8366668782e-02
 1  3  2     5.0058539533e-12
 1  3  3     0.0000000000e+00
 2  1  1     0.0000000000e+00
 2  1  2     0.0000000000e+00
 2  1  3    -6.9733426835e-13
 2  2  1     0.0000000000e+00
 2  2  2     0.0000000000e+00
 2  2  3    -3.9515835674e-03
 2  3  1     5.0058539533e-12
 2  3  2     2.8366668784e-02
 2  3  3     0.0000000000e+00
 3  1  1     2.8366668782e-02
 3  1  2     5.0058539533e-12
 3  1  3     0.0000000000e+00
 3  2  1     5.0058539533e-12
 3  2  2     2.8366668784e-02
 3  2  3     0.0000000000e+00
 3  3  1     0.0000000000e+00
 3  3  2     0.0000000000e+00
 3  3  3    -1.1391592921e-01

    4
0.0000000000e+00 0.0000000000e+00 0.0000000000e+00
0.0000000000e+00 0.0000000000e+00 0.0000000000e+00
     1      1      5
 1  1  1    -1.8282129918e-01
 1  1  2     7.6226456055e-01
 1  1  3     9.4929200461e+00
 1  2  1     1.4347155396e+00
 1  2  2    -4.4918018712e-01
 1  2  3    -4.9503983830e+00
 1  3  1     9.7777201243e+00
 1  3  2    -5.9453596999e+00
 1  3  3     1.0272971234e+01
 2  1  1     1.4347155396e+00
 2  1  2    -4.4918018712e-01
 2  1  3    -4.9503983830e+00
 2  2  1     7.1553907385e-01
 2  2  2    -1.0698293111e+00
 2  2  3     3.7766923696e+00
 2  3  1    -5.9453596999e+00
 2  3  2     2.9126100801e+00
 2  3  3    -5.9311027081e+00
 3  1  1     9.7777201243e+00
 3  1  2    -5.9453596999e+00
 3  1  3     1.0272971234e+01
 3  2  1    -5.9453596999e+00
 3  2  2     2.9126100801e+00
 3  2  3    -5.9311027081e+00
 3  3  1     1.0223979183e+01
 3  3  2    -5.9028171341e+00
 3  3  3     1.0847208028e+01

    5
0.0000000000e+00 0.0000000000e+00 0.0000000000e+00
-3.2716711190e+00 0.0000000000e+00 0.0000000000e+00
     1      1      1
 1  1  1    -1.3882668757e-09
 1  1  2    -1.0031401361e+01
 1  1  3     0.0000000000e+00
 1  2  1     1.0822552570e+00
 1  2  2     2.5446445036e-10
 1  2  3     0.0000000000e+00
 1  3  1     0.0000000000e+00
 1  3  2     0.0000000000e+00
 1  3  3     5.6119742483e-10
 2  1  1     1.0822552570e+00
 2  1  2     2.5446445036e-10
 2  1  3     0.0000000000e+00
 2  2  1     2.5446445036e-10
 2  2  2     1.4419735070e+00
 2  2  3     0.0000000000e+00
 2  3  1     0.0000000000e+00
 2  3  2     0.0000000000e+00
 2  3  3     3.1801370199e+00
 3  1  1     0.0000000000e+00
 3  1  2     0.0000000000e+00
 3  1  3     5.6119742483e-10
 3  2  1     0.0000000000e+00
 3  2  2     0.0000000000e+00
 3  2  3     3.1801370199e+00
 3  3  1     5.6843222658e-11
 3  3  2     3.2211344654e-01
 3  3  3     0.0000000000e+00

    6
0.0000000000e+00 0.0000000000e+00 0.0000000000e+00
3.2716711190e+00 0.0000000000e+00 0.0000000000e+00
     1      1      3
 1  1  1     1.8282130046e-01
 1  1  2     7.6226456087e-01
 1  1  3    -9.4929200496e+00
 1  2  1     1.4347155395e+00
 1  2  2     4.4918018675e-01
 1  2  3    -4.9503983843e+00
 1  3  1    -9.7777201285e+00
 1  3  2    -5.9453597009e+00
 1  3  3    -1.0272971236e+01
 2  1  1     1.4347155395e+00
 2  1  2     4.4918018675e-01
 2  1  3    -4.9503983843e+00
 2  2  1    -7.1553907422e-01
 2  2  2    -1.0698293111e+00
 2  2  3    -3.7766923696e+00
 2  3  1    -5.9453597009e+00
 2  3  2    -2.9126100801e+00
 2  3  3    -5.9311027081e+00
 3  1  1    -9.7777201285e+00
 3  1  2    -5.9453597009e+00
 3  1  3    -1.0272971236e+01
 3  2  1    -5.9453597009e+00
 3  2  2    -2.9126100801e+00
 3  2  3    -5.9311027081e+00
 3  3  1    -1.0223979185e+01
 3  3  2    -5.9028171341e+00
 3  3  3    -1.0847208028e+01

    7
0.0000000000e+00 0.0000000000e+00 0.0000000000e+00
-3.2716711190e+00 0.0000000000e+00 0.0000000000e+00
     1      1      4
 1  1  1    -4.1149377163e-12
 1  1  2    -2.3318114423e-02
 1  1  3    -3.0331642786e-02
 1  2  1     0.0000000000e+00
 1  2  2     4.1963117970e-12
 1  2  3    -5.9736450867e-12
 1  3  1    -2.0346508144e-02
 1  3  2    -8.3577670694e-12
 1  3  3    -8.6540876487e-13
 2  1  1     0.0000000000e+00
 2  1  2     4.1963117970e-12
 2  1  3    -5.9736450867e-12
 2  2  1     4.1963117970e-12
 2  2  2     2.3779236864e-02
 2  2  3    -3.3850850063e-02
 2  3  1    -8.3577670694e-12
 2  3  2    -4.7360952287e-02
 2  3  3    -4.9040111887e-03
 3  1  1    -2.0346508144e-02
 3  1  2    -8.3577670694e-12
 3  1  3    -8.6540876487e-13
 3  2  1    -8.3577670694e-12
 3  2  2    -4.7360952287e-02
 3  2  3    -4.9040111887e-03
 3  3  1    -6.6784190517e-12
 3  3  2    -3.7844592153e-02
 3  3  3    -1.4434850272e-01

    8
0.0000000000e+00 0.0000000000e+00 0.0000000000e+00
3.2716711190e+00 0.0000000000e+00 0.0000000000e+00
     1      1      5
 1  1  1     1.8282130046e-01
 1  1  2     7.6226456087e-01
 1  1  3     9.4929200496e+00
 1  2  1     1.4347155395e+00
 1  2  2     4.4918018675e-01
 1  2  3     4.9503983843e+00
 1  3  1     9.7777201285e+00
 1  3  2     5.9453597009e+00
 1  3  3    -1.0272971236e+01
 2  1  1     1.4347155395e+00
 2  1  2     4.4918018675e-01
 2  1  3     4.9503983843e+00
 2  2  1    -7.1553907422e-01
 2  2  2    -1.0698293111e+00
 2  2  3     3.7766923696e+00
 2  3  1     5.9453597009e+00
 2  3  2     2.9126100801e+00
 2  3  3    -5.9311027081e+00
 3  1  1     9.7777201285e+00
 3  1  2     5.9453597009e+00
 3  1  3    -1.0272971236e+01
 3  2  1     5.9453597009e+00
 3  2  2     2.9126100801e+00
 3  2  3    -5.9311027081e+00
 3  3  1    -1.0223979185e+01
 3  3  2    -5.9028171341e+00
 3  3  3     1.0847208028e+01

    9
0.0000000000e+00 0.0000000000e+00 0.0000000000e+00
-1.6358355590e+00 2.8333503020e+00 0.0000000000e+00
     1      1      1
 1  1  1     7.6664256305e-01
 1  1  2     1.5248765467e+00
 1  1  3     0.0000000000e+00
 1  2  1    -4.0319517607e+00
 1  2  2    -2.9526887983e+00
 1  2  3     0.0000000000e+00
 1  3  1     0.0000000000e+00
 1  3  2     0.0000000000e+00
 1  3  3    -2.7540794469e+00
 2  1  1    -4.0319517607e+00
 2  1  2    -2.9526887983e+00
 2  1  3     0.0000000000e+00
 2  2  1     6.6720201624e+00
 2  2  2     2.7698373796e+00
 2  2  3     0.0000000000e+00
 2  3  1     0.0000000000e+00
 2  3  2     0.0000000000e+00
 2  3  3    -1.5900685099e+00
 3  1  1     0.0000000000e+00
 3  1  2     0.0000000000e+00
 3  1  3    -2.7540794469e+00
 3  2  1     0.0000000000e+00
 3  2  2     0.0000000000e+00
 3  2  3    -1.5900685099e+00
 3  3  1    -2.7895842762e-01
 3  3  2    -1.6105672327e-01
 3  3  3     0.0000000000e+00

   10
0.0000000000e+00 0.0000000000e+00 0.0000000000e+00
1.6358355590e+00 -2.8333503020e+00 0.0000000000e+00
     1      1      3
 1  1  1     5.8500347743e-10
 1  1  2     2.0016145917e+00
 1  1  3    -9.1857853000e-01
 1  2  1     6.5671263404e-01
 1  2  2    -2.4467253097e-10
 1  2  3    -2.1795801785e-09
 1  3  1     5.1994494345e-01
 1  3  2    -2.3312106757e-09
 1  3  3     2.0933181845e-09
 2  1  1     6.5671263404e-01
 2  1  2    -2.4467249357e-10
 2  1  3    -2.1795815525e-09
 2  2  1    -2.4467271890e-10
 2  2  2    -1.3864850912e+00
 2  2  3    -1.2351033888e+01
 2  3  1    -2.3312106757e-09
 2  3  2    -1.3210275151e+01
 2  3  3     1.1862205416e+01
 3  1  1     5.1994494345e-01
 3  1  2    -2.3312100156e-09
 3  1  3     2.0933181845e-09
 3  2  1    -2.3312116658e-09
 3  2  2    -1.3210275151e+01
 3  2  3     1.1862205416e+01
 3  3  1     2.0833350988e-09
 3  3  2     1.1805634268e+01
 3  3  3    -1.0847208028e+01

   11
0.0000000000e+00 0.0000000000e+00 0.0000000000e+00
-1.6358355590e+00 2.8333503020e+00 0.0000000000e+00
     1      1      4
 1  1  1    -1.0396547546e-02
 1  1  2    -6.0024495240e-03
 1  1  3    -3.2971048242e-02
 1  2  1    -1.7661506732e-02
 1  2  2    -1.0196875665e-02
 1  2  3    -1.5238614557e-03
 1  3  1    -4.0607341252e-02
 1  3  2    -1.1697597452e-02
 1  3  3     4.2469982702e-03
 2  1  1    -1.7661506732e-02
 2  1  2    -1.0196875665e-02
 2  1  3    -1.5238614557e-03
 2  2  1     9.9972037942e-03
 2  2  2     5.7718883014e-03
 2  2  3    -3.1211444607e-02
 2  3  1    -1.1697597452e-02
 2  3  2    -2.7100119181e-02
 2  3  3     2.4520055944e-03
 3  1  1    -4.0607341252e-02
 3  1  2    -1.1697597452e-02
 3  1  3     4.2469982702e-03
 3  2  1    -1.1697597452e-02
 3  2  2    -2.7100119181e-02
 3  2  3     2.4520055944e-03
 3  3  1     3.2774378203e-02
 3  3  2     1.8922296077e-02
 3  3  3    -1.4434850272e-01

   12
0.0000000000e+00 0.0000000000e+00 0.0000000000e+00
1.6358355590e+00 -2.8333503020e+00 0.0000000000e+00
     1      1      5
 1  1  1     5.8500347743e-10
 1  1  2     2.0016145917e+00
 1  1  3     9.1857853000e-01
 1  2  1     6.5671263404e-01
 1  2  2    -2.4467253097e-10
 1  2  3     2.1795801785e-09
 1  3  1    -5.1994494345e-01
 1  3  2     2.3312106757e-09
 1  3  3     2.0933181845e-09
 2  1  1     6.5671263404e-01
 2  1  2    -2.4467249357e-10
 2  1  3     2.1795815525e-09
 2  2  1    -2.4467271890e-10
 2  2  2    -1.3864850912e+00
 2  2  3     1.2351033888e+01
 2  3  1     2.3312106757e-09
 2  3  2     1.3210275151e+01
 2  3  3     1.1862205416e+01
 3  1  1    -5.1994494345e-01
 3  1  2     2.3312100156e-09
 3  1  3     2.0933181845e-09
 3  2  1     2.3312116658e-09
 3  2  2     1.3210275151e+01
 3  2  3     1.1862205416e+01
 3  3  1     2.0833350988e-09
 3  3  2     1.1805634268e+01
 3  3  3     1.0847208028e+01

   13
0.0000000000e+00 0.0000000000e+00 0.0000000000e+00
1.6358355600e+00 2.8333503020e+00 0.0000000000e+00
     1      1      1
 1  1  1    -7.6664256535e-01
 1  1  2     1.5248765488e+00
 1  1  3     0.0000000000e+00
 1  2  1    -4.0319517620e+00
 1  2  2     2.9526887993e+00
 1  2  3     0.0000000000e+00
 1  3  1     0.0000000000e+00
 1  3  2     0.0000000000e+00
 1  3  3     2.7540794463e+00
 2  1  1    -4.0319517620e+00
 2  1  2     2.9526887993e+00
 2  1  3     0.0000000000e+00
 2  2  1    -6.6720201614e+00
 2  2  2     2.7698373796e+00
 2  2  3     0.0000000000e+00
 2  3  1     0.0000000000e+00
 2  3  2     0.0000000000e+00
 2  3  3    -1.5900685099e+00
 3  1  1     0.0000000000e+00
 3  1  2     0.0000000000e+00
 3  1  3     2.7540794463e+00
 3  2  1     0.0000000000e+00
 3  2  2     0.0000000000e+00
 3  2  3    -1.5900685099e+00
 3  3  1     2.7895842756e-01
 3  3  2    -1.6105672327e-01
 3  3  3     0.0000000000e+00

   14
0.0000000000e+00 0.0000000000e+00 0.0000000000e+00
4.9075066780e+00 -2.8333503020e+00 0.0000000000e+00
     1      1      3
 1  1  1     0.0000000000e+00
 1  1  2     0.0000000000e+00
 1  1  3    -1.2817091575e+00
 1  2  1     0.0000000000e+00
 1  2  2     0.0000000000e+00
 1  2  3    -2.2618266890e-10
 1  3  1     5.7574823480e-01
 1  3  2     1.0160204568e-10
 1  3  3     0.0000000000e+00
 2  1  1     0.0000000000e+00
 2  1  2     0.0000000000e+00
 2  1  3    -2.2618266890e-10
 2  2  1     0.0000000000e+00
 2  2  2     0.0000000000e+00
 2  2  3    -1.2817091576e+00
 2  3  1     1.0160204568e-10
 2  3  2     5.7574823485e-01
 2  3  3     0.0000000000e+00
 3  1  1     5.7574823480e-01
 3  1  2     1.0160204568e-10
 3  1  3     0.0000000000e+00
 3  2  1     1.0160204568e-10
 3  2  2     5.7574823485e-01
 3  2  3     0.0000000000e+00
 3  3  1     0.0000000000e+00
 3  3  2     0.0000000000e+00
 3  3  3    -5.3188454187e-01

   15
0.0000000000e+00 0.0000000000e+00 0.0000000000e+00
1.6358355600e+00 2.8333503020e+00 0.0000000000e+00
     1      1      4
 1  1  1     1.0396547532e-02
 1  1  2    -6.0024495168e-03
 1  1  3    -3.2971048241e-02
 1  2  1    -1.7661506732e-02
 1  2  2     1.0196875667e-02
 1  2  3     1.5238614447e-03
 1  3  1    -4.0607341244e-02
 1  3  2     1.1697597442e-02
 1  3  3    -4.2469982693e-03
 2  1  1    -1.7661506732e-02
 2  1  2     1.0196875667e-02
 2  1  3     1.5238614447e-03
 2  2  1    -9.9972037921e-03
 2  2  2     5.7718883014e-03
 2  2  3    -3.1211444607e-02
 2  3  1     1.1697597442e-02
 2  3  2    -2.7100119181e-02
 2  3  3     2.4520055944e-03
 3  1  1    -4.0607341244e-02
 3  1  2     1.1697597442e-02
 3  1  3    -4.2469982693e-03
 3  2  1     1.1697597442e-02
 3  2  2    -2.7100119181e-02
 3  2  3     2.4520055944e-03
 3  3  1    -3.2774378196e-02
 3  3  2     1.8922296077e-02
 3  3  3    -1.4434850272e-01

   16
0.0000000000e+00 0.0000000000e+00 0.0000000000e+00
4.9075066780e+00 -2.8333503020e+00 0.0000000000e+00
     1      1      5
 1  1  1     0.0000000000e+00
 1  1  2     0.0000000000e+00
 1  1  3     1.2817091575e+00
 1  2  1     0.0000000000e+00
 1  2  2     0.0000000000e+00
 1  2  3     2.2618258146e-10
 1  3  1    -5.7574823480e-01
 1  3  2    -1.0160200640e-10
 1  3  3     0.0000000000e+00
 2  1  1     0.0000000000e+00
 2  1  2     0.0000000000e+00
 2  1  3     2.2618258146e-10
 2  2  1     0.0000000000e+00
 2  2  2     0.0000000000e+00
 2  2  3     1.2817091576e+00
 2  3  1    -1.0160200640e-10
 2  3  2    -5.7574823485e-01
 2  3  3     0.0000000000e+00
 3  1  1    -5.7574823480e-01
 3  1  2    -1.0160200640e-10
 3  1  3     0.0000000000e+00
 3  2  1    -1.0160200640e-10
 3  2  2    -5.7574823485e-01
 3  2  3     0.0000000000e+00
 3  3  1     0.0000000000e+00
 3  3  2     0.0000000000e+00
 3  3  3     5.3188454187e-01

   17
0.0000000000e+00 0.0000000000e+00 0.0000000000e+00
0.0000000000e+00 0.0000000000e+00 1.3127322878e+01
     1      1      6
 1  1  1     0.0000000000e+00
 1  1  2     0.0000000000e+00
 1  1  3     3.9515835670e-03
 1  2  1     0.0000000000e+00
 1  2  2     0.0000000000e+00
 1  2  3     6.9733399876e-13
 1  3  1    -2.8366668782e-02
 1  3  2    -5.0058520180e-12
 1  3  3     0.0000000000e+00
 2  1  1     0.0000000000e+00
 2  1  2     0.0000000000e+00
 2  1  3     6.9733399876e-13
 2  2  1     0.0000000000e+00
 2  2  2     0.0000000000e+00
 2  2  3     3.9515835674e-03
 2  3  1    -5.0058520180e-12
 2  3  2    -2.8366668784e-02
 2  3  3     0.0000000000e+00
 3  1  1    -2.8366668782e-02
 3  1  2    -5.0058520180e-12
 3  1  3     0.0000000000e+00
 3  2  1    -5.0058520180e-12
 3  2  2    -2.8366668784e-02
 3  2  3     0.0000000000e+00
 3  3  1     0.0000000000e+00
 3  3  2     0.0000000000e+00
 3  3  3     1.1391592921e-01

   18
0.0000000000e+00 0.0000000000e+00 0.0000000000e+00
3.2716711190e+00 0.0000000000e+00 1.3127322878e+01
     1      1      6
 1  1  1    -4.1149377163e-12
 1  1  2    -2.3318114423e-02
 1  1  3     3.0331642786e-02
 1  2  1     0.0000000000e+00
 1  2  2     4.1963117970e-12
 1  2  3     5.9736450867e-12
 1  3  1     2.0346508144e-02
 1  3  2     8.3577670694e-12
 1  3  3    -8.6540876487e-13
 2  1  1     0.0000000000e+00
 2  1  2     4.1963117970e-12
 2  1  3     5.9736450867e-12
 2  2  1     4.1963117970e-12
 2  2  2     2.3779236864e-02
 2  2  3     3.3850850063e-02
 2  3  1     8.3577670694e-12
 2  3  2     4.7360952287e-02
 2  3  3    -4.9040111887e-03
 3  1  1     2.0346508144e-02
 3  1  2     8.3577670694e-12
 3  1  3    -8.6540876487e-13
 3  2  1     8.3577670694e-12
 3  2  2     4.7360952287e-02
 3  2  3    -4.9040111887e-03
 3  3  1    -6.6784190517e-12
 3  3  2    -3.7844592153e-02
 3  3  3     1.4434850272e-01

   19
0.0000000000e+00 0.0000000000e+00 0.0000000000e+00
-1.6358355590e+00 2.8333503020e+00 1.3127322878e+01
     1      1      6
 1  1  1    -1.0396547546e-02
 1  1  2    -6.0024495240e-03
 1  1  3     3.2971048242e-02
 1  2  1    -1.7661506732e-02
 1  2  2    -1.0196875665e-02
 1  2  3     1.5238614557e-03
 1  3  1     4.0607341252e-02
 1  3  2     1.1697597452e-02
 1  3  3     4.2469982702e-03
 2  1  1    -1.7661506732e-02
 2  1  2    -1.0196875665e-02
 2  1  3     1.5238614557e-03
 2  2  1     9.9972037942e-03
 2  2  2     5.7718883014e-03
 2  2  3     3.1211444607e-02
 2  3  1     1.1697597452e-02
 2  3  2     2.7100119181e-02
 2  3  3     2.4520055944e-03
 3  1  1     4.0607341252e-02
 3  1  2     1.1697597452e-02
 3  1  3     4.2469982702e-03
 3  2  1     1.1697597452e-02
 3  2  2     2.7100119181e-02
 3  2  3     2.4520055944e-03
 3  3  1     3.2774378203e-02
 3  3  2     1.8922296077e-02
 3  3  3     1.4434850272e-01

   20
0.0000000000e+00 0.0000000000e+00 0.0000000000e+00
1.6358355600e+00 2.8333503020e+00 1.3127322878e+01
     1      1      6
 1  1  1     1.0396547532e-02
 1  1  2    -6.0024495168e-03
 1  1  3     3.2971048241e-02
 1  2  1    -1.7661506732e-02
 1  2  2     1.0196875667e-02
 1  2  3    -1.5238614447e-03
 1  3  1     4.0607341244e-02
 1  3  2    -1.1697597442e-02
 1  3  3    -4.2469982693e-03
 2  1  1    -1.7661506732e-02
 2  1  2     1.0196875667e-02
 2  1  3    -1.5238614447e-03
 2  2  1    -9.9972037921e-03
 2  2  2     5.7718883014e-03
 2  2  3     3.1211444607e-02
 2  3  1    -1.1697597442e-02
 2  3  2     2.7100119181e-02
 2  3  3     2.4520055944e-03
 3  1  1     4.0607341244e-02
 3  1  2    -1.1697597442e-02
 3  1  3    -4.2469982693e-03
 3  2  1    -1.1697597442e-02
 3  2  2     2.7100119181e-02
 3  2  3     2.4520055944e-03
 3  3  1    -3.2774378196e-02
 3  3  2     1.8922296077e-02
 3  3  3     1.4434850272e-01

   21
0.0000000000e+00 0.0000000000e+00 0.0000000000e+00
0.0000000000e+00 0.0000000000e+00 0.0000000000e+00
     1      3      1
 1  1  1    -1.8282129918e-01
 1  1  2     1.4347155396e+00
 1  1  3    -9.7777201243e+00
 1  2  1     7.6226456055e-01
 1  2  2    -4.4918018712e-01
 1  2  3     5.9453596999e+00
 1  3  1    -9.4929200461e+00
 1  3  2     4.9503983830e+00
 1  3  3     1.0272971234e+01
 2  1  1     1.4347155396e+00
 2  1  2     7.1553907385e-01
 2  1  3     5.9453596999e+00
 2  2  1    -4.4918018712e-01
 2  2  2    -1.0698293111e+00
 2  2  3    -2.9126100801e+00
 2  3  1     4.9503983830e+00
 2  3  2    -3.7766923696e+00
 2  3  3    -5.9311027081e+00
 3  1  1    -9.7777201243e+00
 3  1  2     5.9453596999e+00
 3  1  3     1.0223979183e+01
 3  2  1     5.9453596999e+00
 3  2  2    -2.9126100801e+00
 3  2  3    -5.9028171341e+00
 3  3  1     1.0272971234e+01
 3  3  2    -5.9311027081e+00
 3  3  3    -1.0847208028e+01

   22
0.0000000000e+00 0.0000000000e+00 0.0000000000e+00
0.0000000000e+00 0.0000000000e+00 0.0000000000e+00
     1      3      3
 1  1  1     9.1510449839e-01
 1  1  2    -5.0993431320e-01
 1  1  3     1.2210573091e+01
 1  2  1    -5.0993431320e-01
 1  2  2     2.5575963099e-01
 1  2  3    -6.8157220296e+00
 1  3  1     1.2210573091e+01
 1  3  2    -6.8157220296e+00
 1  3  3    -1.2486014621e+01
 2  1  1    -4.6726073658e-01
 2  1  2     3.2967243381e-01
 2  1  3    -6.8157220296e+00
 2  2  1     3.2967243381e-01
 2  2  2    -2.0873798379e-01
 2  2  3     4.3404551960e+00
 2  3  1    -6.8157220296e+00
 2  3  2     4.3404551960e+00
 2  3  3     7.2088039035e+00
 3  1  1     1.0598820352e+01
 3  1  2    -5.9260071505e+00
 3  1  3    -1.1892239114e+01
 3  2  1    -5.9260071505e+00
 3  2  2     3.7560567069e+00
 3  2  3     6.8659874547e+00
 3  3  1    -1.1892239114e+01
 3  3  2     6.8659874547e+00
 3  3  3     1.3952142615e+01

   23
0.0000000000e+00 0.0000000000e+00 0.0000000000e+00
0.0000000000e+00 0.0000000000e+00 0.0000000000e+00
     1      3      5
 1  1  1    -3.8895411449e-01
 1  1  2     8.2133301594e-02
 1  1  3    -1.8563128741e-01
 1  2  1     8.2133301594e-02
 1  2  2     4.0841334327e-02
 1  2  3    -1.6932059269e-01
 1  3  1     1.8563128741e-01
 1  3  2     1.6932059269e-01
 1  3  3     8.1018339316e-01
 2  1  1    -6.5517712821e-02
 2  1  2    -2.1489772436e-01
 2  1  3    -1.6932059269e-01
 2  2  1    -2.1489772436e-01
 2  2  2     2.6650072015e-01
 2  2  3    -3.8114586684e-01
 2  3  1     1.6932059269e-01
 2  3  2     3.8114586684e-01
 2  3  3    -4.6775960020e-01
 3  1  1     0.0000000000e+00
 3  1  2     0.0000000000e+00
 3  1  3     5.9441286441e-01
 3  2  1     0.0000000000e+00
 3  2  2     0.0000000000e+00
 3  2  3    -3.4318442733e-01
 3  3  1     5.9441286441e-01
 3  3  2    -3.4318442733e-01
 3  3  3     0.0000000000e+00

   24
0.0000000000e+00 0.0000000000e+00 0.0000000000e+00
-3.2716711190e+00 0.0000000000e+00 0.0000000000e+00
     1      3      1
 1  1  1     1.4578557810e-10
 1  1  2     1.0040184872e+00
 1  1  3    -2.5580062663e-01
 1  2  1    -1.1819139499e+00
 1  2  2     8.5032586741e-02
 1  2  3     2.2497992532e-02
 1  3  1    -1.4326640153e+00
 1  3  2     3.7923773065e-01
 1  3  3     4.2659566735e-01
 2  1  1     1.0040184871e+00
 2  1  2     5.5637569590e-12
 2  1  3     2.7780698046e-01
 2  2  1    -8.5032586730e-02
 2  2  2     3.1528137322e-02
 2  2  3    -2.0501210589e-01
 2  3  1    -3.7923773110e-01
 2  3  2    -1.2718996949e+00
 2  3  3    -1.2152653221e+00
 3  1  1    -2.5580062674e-01
 3  1  2    -2.7780698053e-01
 3  1  3    -3.2383859595e-10
 3  2  1    -2.2497992604e-02
 3  2  2    -2.0501210589e-01
 3  2  3    -1.8350959250e+00
 3  3  1    -4.2659566778e-01
 3  3  2    -1.2152653221e+00
 3  3  3    -2.0229315448e+00

   25
0.0000000000e+00 0.0000000000e+00 0.0000000000e+00
3.2716711190e+00 0.0000000000e+00 0.0000000000e+00
     1      3      3
 1  1  1    -1.7589632332e-10
 1  1  2    -1.0058985441e-01
 1  1  3    -6.0507867834e-01
 1  2  1    -1.0058985431e-01
 1  2  2     7.0452975276e-12
 1  2  3     1.3309669028e-01
 1  3  1    -6.0507867819e-01
 1  3  2    -1.3309669016e-01
 1  3  3     3.2650358200e-11
 2  1  1    -7.9557185277e-01
 2  1  2    -2.8892591165e-01
 2  1  3    -5.3731509374e-01
 2  2  1     2.8892591166e-01
 2  2  2     3.9923582134e-02
 2  2  3     3.5999058886e-01
 2  3  1     5.3731509386e-01
 2  3  2     3.5999058886e-01
 2  3  3     1.8501975995e-01
 3  1  1     3.6662697842e-02
 3  1  2    -4.3580200294e-01
 3  1  3    -5.8342930862e-01
 3  2  1     4.3580200285e-01
 3  2  2    -2.3230597011e-01
 3  2  3     4.4731542431e-01
 3  3  1     5.8342930878e-01
 3  3  2     4.4731542431e-01
 3  3  3     5.6517489632e-01

   26
0.0000000000e+00 0.0000000000e+00 0.0000000000e+00
3.2716711190e+00 0.0000000000e+00 0.0000000000e+00
     1      3      5
 1  1  1    -9.6427470676e-11
 1  1  2    -8.7825401561e-02
 1  1  3    -4.1920222777e-01
 1  2  1    -8.7825401269e-02
 1  2  2     1.4729089339e-10
 1  2  3     2.6415629303e-01
 1  3  1     4.1920222806e-01
 1  3  2     2.6415629313e-01
 1  3  3     1.1159078328e-11
 2  1  1    -3.7077467210e-01
 2  1  2    -8.2716342876e-01
 2  1  3     5.6553009268e-01
 2  2  1     8.2716342906e-01
 2  2  2     8.3465319339e-01
 2  2  3    -2.7214109542e-01
 2  3  1     5.6553009277e-01
 2  3  2     2.7214109542e-01
 2  3  3     6.3235140663e-02
 3  1  1     3.7653701472e-11
 3  1  2     1.0668610073e-01
 3  1  3     1.6965624575e-01
 3  2  1     1.0668610073e-01
 3  2  2     0.0000000000e+00
 3  2  3    -1.7847403891e-02
 3  3  1    -1.6965624576e-01
 3  3  2    -1.7847403891e-02
 3  3  3     0.0000000000e+00

   27
0.0000000000e+00 0.0000000000e+00 0.0000000000e+00
-1.6358355590e+00 2.8333503020e+00 0.0000000000e+00
     1      3      1
 1  1  1    -1.9933900724e-01
 1  1  2    -1.3039578057e-01
 1  1  3    -3.4774510382e-01
 1  2  1     8.8893005737e-01
 1  2  2    -6.5495438298e-01
 1  2  3     2.2472281183e-01
 1  3  1    -1.3120907749e+00
 1  3  2    -3.0962473831e-01
 1  3  3     1.2657484751e+00
 2  1  1    -2.7767654110e-01
 2  1  2     1.1956023452e+00
 2  1  3    -3.0586176096e-02
 2  2  1    -7.3998696972e-01
 2  2  2    -3.1373715134e-01
 2  2  3    -1.1306762872e-01
 2  3  1     4.4885072343e-01
 2  3  2    -1.3924729353e+00
 2  3  3     2.3818997578e-01
 3  1  1    -8.7673368325e-02
 3  1  2     7.4570325254e-02
 3  1  3     1.5892396895e+00
 3  2  1    -1.8073866268e-01
 3  2  2    -3.7313936429e-01
 3  2  3     9.1754796251e-01
 3  3  1     8.3915280763e-01
 3  3  2     9.7707534632e-01
 3  3  3    -2.0229315448e+00

   28
0.0000000000e+00 0.0000000000e+00 0.0000000000e+00
1.6358355590e+00 -2.8333503020e+00 0.0000000000e+00
     1      3      3
 1  1  1     1.8987191600e-01
 1  1  2    -5.8867543094e-01
 1  1  3     2.9375497525e-01
 1  2  1    -8.8241072302e-02
 1  2  2     4.6453868266e-01
 1  2  3    -1.8373242125e-02
 1  3  1    -5.6308430841e-02
 1  3  2     8.5414774375e-01
 1  3  3    -1.6023181233e-01
 2  1  1     9.0327474804e-03
 2  1  2    -2.8179633899e-01
 2  1  3     6.5203854190e-01
 2  2  1     7.1295726617e-03
 2  2  2     3.6879138782e-01
 2  2  3    -5.3884306462e-01
 2  3  1     1.8373595973e-01
 2  3  2    -1.8877965843e-01
 2  3  3    -9.2509879973e-02
 3  1  1    -1.6506380315e-01
 3  1  2     3.1933515326e-01
 3  1  3    -6.7910117524e-01
 3  2  1    -5.5226885253e-01
 3  2  2    -3.0579469143e-02
 3  2  3     2.8160689051e-01
 3  3  1    -9.5671866716e-02
 3  3  2    -7.2892231482e-01
 3  3  3     5.6517489632e-01

   29
0.0000000000e+00 0.0000000000e+00 0.0000000000e+00
1.6358355590e+00 -2.8333503020e+00 0.0000000000e+00
     1      3      5
 1  1  1    -4.2381856614e-01
 1  1  2    -1.1903363425e+00
 1  1  3    -6.6817112206e-01
 1  2  1     2.4235274264e-01
 1  2  2     2.2087982304e-02
 1  2  3     4.2178783461e-01
 1  3  1    -5.0358365047e-02
 1  3  2     2.9442915807e-01
 1  3  3    -5.4763238229e-02
 2  1  1    -3.3251716462e-01
 2  1  2    -6.3653498855e-01
 2  1  3     1.2041403496e-01
 2  2  1     1.9062844035e-01
 2  2  2     1.0057790394e-01
 2  2  3    -2.3172201165e-02
 2  3  1    -6.9446415801e-03
 2  3  2     7.4170168847e-01
 2  3  3    -3.1617570331e-02
 3  1  1    -9.2392873437e-02
 3  1  2     5.3343050379e-02
 3  1  3     1.0028442801e-01
 3  2  1     5.3343050379e-02
 3  2  2     9.2392873463e-02
 3  2  3    -1.3800291679e-01
 3  3  1    -6.9371817689e-02
 3  3  2     1.5585032069e-01
 3  3  3     0.0000000000e+00

   30
0.0000000000e+00 0.0000000000e+00 0.0000000000e+00
-1.6358355600e+00 -2.8333503020e+00 0.0000000000e+00
     1      3      1
 1  1  1     1.6848880545e-01
 1  1  2     1.9404334823e-01
 1  1  3    -5.0510087979e-01
 1  2  1     4.7057173913e-02
 1  2  2     1.0834388749e-01
 1  2  3    -5.2766560684e-02
 1  3  1     2.7461808794e-01
 1  3  2     3.0141365475e-01
 1  3  3    -1.7518539312e-01
 2  1  1     7.5360230691e-02
 2  1  2     1.5736621983e-01
 2  1  3    -5.2766560684e-02
 2  2  1    -9.7221302036e-02
 2  2  2    -2.3518966049e-01
 2  2  3    -5.6603045573e-01
 2  3  1     3.0141365475e-01
 2  3  2     6.2266059716e-01
 2  3  3     1.0114333389e-01
 3  1  1    -2.0823629250e-01
 3  1  2     7.8920194402e-02
 3  1  3     8.5656623688e-01
 3  2  1     7.8920194402e-02
 3  2  2    -1.1710710156e-01
 3  2  3    -4.9453874751e-01
 3  3  1     1.0007695154e-01
 3  3  2    -5.7779454921e-02
 3  3  3    -2.3399379201e-01

   31
0.0000000000e+00 0.0000000000e+00 0.0000000000e+00
-1.6358355600e+00 -2.8333503020e+00 0.0000000000e+00
     1      3      3
 1  1  1    -1.1266554087e-01
 1  1  2     1.8880390208e-01
 1  1  3     2.8320431702e-01
 1  2  1     4.6324812024e-03
 1  2  2     3.0533007718e-01
 1  2  3    -4.2448012898e-02
 1  3  1     8.9243537644e-02
 1  3  2    -8.1739295950e-02
 1  3  3     1.4797702295e-01
 2  1  1    -2.0022915197e-01
 2  1  2    -4.9500679913e-02
 2  1  3    -4.2448012898e-02
 2  2  1    -3.6849493810e-01
 2  2  2     8.8994230029e-02
 2  2  3     2.3418957367e-01
 2  3  1    -8.1739295950e-02
 2  3  2    -5.1408713629e-03
 2  3  3    -8.5434574046e-02
 3  1  1     5.8636688270e-02
 3  1  2     1.7455378977e-02
 3  1  3    -3.9952400426e-01
 3  2  1     1.7455378977e-02
 3  2  2     7.8792423756e-02
 3  2  3     2.3066529144e-01
 3  3  1     1.4588401669e-01
 3  3  2    -8.4226176316e-02
 3  3  3     3.8883913252e-01

   32
0.0000000000e+00 0.0000000000e+00 0.0000000000e+00
-1.6358355600e+00 -2.8333503020e+00 0.0000000000e+00
     1      3      5
 1  1  1     4.7409305709e-02
 1  1  2    -3.3104861498e-01
 1  1  3     5.1177655028e-02
 1  2  1    -8.0831325365e-02
 1  2  2    -2.1609898908e-01
 1  2  3     1.0711914482e-01
 1  3  1    -1.7803532993e-01
 1  3  2     1.1964943166e-01
 1  3  3    -4.4555605749e-03
 2  1  1    -5.1068681038e-03
 2  1  2    -8.4940381758e-02
 2  1  3     1.0711914482e-01
 2  2  1     3.4844867667e-01
 2  2  2     1.0249990222e-01
 2  2  3     1.7486818916e-01
 2  3  1     1.1964943166e-01
 2  3  2    -3.9876066816e-02
 2  3  3     2.5724190977e-03
 3  1  1    -1.3907202791e-01
 3  1  2     1.1598574588e-01
 3  1  3     2.3525793920e-02
 3  2  1     1.1598574588e-01
 3  2  2    -5.1432247461e-03