   0.32640E+01   0.39420E-02   0.52605E-02
   0.65280E+01   0.39910E-02   0.54950E-02
   0.97920E+01   0.47604E-02   0.67696E-02
   0.13056E+02   0.48103E-02   0.70763E-02
   0.16320E+02   0.48742E-02   0.74579E-02
   0.19584E+02   0.48124E-02   0.76710E-02
   0.22848E+02   0.47742E-02   0.78625E-02
   0.26112E+02   0.51539E-02   0.89533E-02
   0.29376E+02   0.49832E-02   0.91176E-02
   0.32640E+02   0.51538E-02   0.10001E-01
   0.35904E+02   0.54885E-02   0.11244E-01
   0.39168E+02   0.53102E-02   0.11748E-01
   0.42432E+02   0.55914E-02   0.13782E-01
   0.45696E+02   0.53933E-02   0.14696E-01
   0.48960E+02   0.57468E-02   0.17441E-01
   0.52224E+02   0.57537E-02   0.21383E-01
   0.55488E+02   0.59032E-02   0.31007E-01
   0.58752E+02   0.94283E-02   0.98553E-01
   0.62016E+02   0.26411E-02   0.33758E-02
   0.65280E+02   0.29691E-02   0.37865E-02
   0.68544E+02   0.30493E-02   0.38832E-02
   0.71808E+02   0.30184E-02   0.38363E-02
   0.75072E+02   0.33170E-02   0.42084E-02
   0.78336E+02   0.37868E-02   0.47898E-02
   0.81600E+02   0.42635E-02   0.53819E-02
   0.84864E+02   0.44527E-02   0.56023E-02
   0.88128E+02   0.49480E-02   0.62075E-02
   0.91392E+02   0.52855E-02   0.66009E-02
   0.94656E+02   0.59518E-02   0.74134E-02
   0.97920E+02   0.64438E-02   0.79825E-02
   0.10118E+03   0.83680E-02   0.10298E-01
   0.10445E+03   0.11549E-01   0.14057E-01
   0.10771E+03   0.82612E-02   0.10151E-01
   0.11098E+03   0.75262E-02   0.92647E-02
   0.11424E+03   0.28781E-01   0.89928E-02
   0.11750E+03   0.34531E-01   0.10389E-01
   0.12077E+03   0.38420E-01   0.12066E-01
   0.12403E+03   0.28221E-01   0.12104E-01
   0.12730E+03   0.24445E-01   0.12243E-01
   0.13056E+03   0.22022E-01   0.12540E-01
   0.13382E+03   0.19937E-01   0.12839E-01
   0.13709E+03   0.17897E-01   0.12690E-01
   0.14035E+03   0.18470E-01   0.13691E-01
   0.14362E+03   0.16922E-01   0.13505E-01
   0.14688E+03   0.16778E-01   0.13908E-01
   0.15014E+03   0.15011E-01   0.13229E-01
   0.15341E+03   0.13508E-01   0.12658E-01
   0.15667E+03   0.43562E-02   0.59014E-02
   0.15994E+03   0.42636E-02   0.58539E-02
   0.16320E+03   0.39380E-02   0.55448E-02
   0.16646E+03   0.38648E-02   0.55493E-02
   0.16973E+03   0.26250E-02   0.43407E-02
   0.17299E+03   0.27151E-02   0.45936E-02
   0.17626E+03   0.27899E-02   0.48490E-02
   0.17952E+03   0.29034E-02   0.52078E-02
   0.18278E+03   0.29500E-02   0.54964E-02
   0.18605E+03   0.31023E-02   0.60623E-02
   0.18931E+03   0.32949E-02   0.68458E-02
   0.19258E+03   0.33905E-02   0.75951E-02
   0.19584E+03   0.34087E-02   0.85019E-02
   0.19910E+03   0.34903E-02   0.10250E-01
   0.20237E+03   0.35864E-02   0.15294E-01
   0.20563E+03   0.28356E-02   0.12837E-01
   0.20890E+03   0.23171E-02   0.11585E-01
   0.21216E+03   0.16111E-02   0.94927E-02
   0.21542E+03   0.11032E-02   0.88857E-02
   0.21869E+03   0.58021E-03   0.85468E-02
   0.22195E+03   0.00000E+00   0.00000E+00
   0.22522E+03   0.00000E+00   0.00000E+00
   0.22848E+03   0.65026E-02   0.29209E-03
   0.23174E+03   0.72205E-02   0.75678E-03
   0.23501E+03   0.71571E-02   0.97937E-03
   0.23827E+03   0.88872E-02   0.15532E-02
   0.24154E+03   0.12417E-01   0.28692E-02
   0.24480E+03   0.89942E-01   0.67121E-01
   0.24806E+03   0.46973E-01   0.27266E-01
   0.25133E+03   0.33474E-01   0.21200E-01
   0.25459E+03   0.21693E-01   0.13097E-01
   0.25786E+03   0.18820E-01   0.11535E-01
   0.26112E+03   0.21955E-01   0.14368E-01
   0.26438E+03   0.10130E-01   0.55537E-02
   0.26765E+03   0.10042E-01   0.57912E-02
   0.27091E+03   0.10841E-01   0.66064E-02
   0.27418E+03   0.11038E-01   0.70557E-02
   0.27744E+03   0.11378E-01   0.76090E-02
   0.28070E+03   0.10774E-01   0.74646E-02
   0.28397E+03   0.89743E-02   0.63891E-02
   0.28723E+03   0.70625E-02   0.51387E-02
   0.29050E+03   0.81307E-02   0.60142E-02
   0.29376E+03   0.13298E-01   0.99925E-02
   0.29702E+03   0.11500E-03   0.86504E-04
   0.30029E+03   0.00000E+00   0.00000E+00
   0.30355E+03   0.00000E+00   0.00000E+00
   0.30682E+03   0.00000E+00   0.00000E+00
   0.31008E+03   0.00000E+00   0.00000E+00
   0.31334E+03   0.00000E+00   0.00000E+00
   0.31661E+03   0.00000E+00   0.00000E+00
   0.31987E+03   0.00000E+00   0.00000E+00
   0.32314E+03   0.00000E+00   0.00000E+00
   0.32640E+03   0.00000E+00   0.00000E+00
