  734

    1
0.0000000000e+00 0.0000000000e+00 0.0000000000e+00
0.0000000000e+00 0.0000000000e+00 0.0000000000e+00
     1      1      1
 1  1  1     0.0000000000e+00
 1  1  2    -1.5215206758e+02
 1  1  3     0.0000000000e+00
 1  2  1    -1.5215206758e+02
 1  2  2     0.0000000000e+00
 1  2  3     0.0000000000e+00
 1  3  1     0.0000000000e+00
 1  3  2     0.0000000000e+00
 1  3  3     0.0000000000e+00
 2  1  1    -1.5215206758e+02
 2  1  2     0.0000000000e+00
 2  1  3     0.0000000000e+00
 2  2  1     0.0000000000e+00
 2  2  2     1.5215206758e+02
 2  2  3     0.0000000000e+00
 2  3  1     0.0000000000e+00
 2  3  2     0.0000000000e+00
 2  3  3     0.0000000000e+00
 3  1  1     0.0000000000e+00
 3  1  2     0.0000000000e+00
 3  1  3     0.0000000000e+00
 3  2  1     0.0000000000e+00
 3  2  2     0.0000000000e+00
 3  2  3     0.0000000000e+00
 3  3  1     0.0000000000e+00
 3  3  2     0.0000000000e+00
 3  3  3     0.0000000000e+00

    2
0.0000000000e+00 0.0000000000e+00 0.0000000000e+00
0.0000000000e+00 0.0000000000e+00 0.0000000000e+00
     1      1      2
 1  1  1     0.0000000000e+00
 1  1  2     1.0708901317e+01
 1  1  3     0.0000000000e+00
 1  2  1     1.0204611055e+01
 1  2  2     0.0000000000e+00
 1  2  3     0.0000000000e+00
 1  3  1     0.0000000000e+00
 1  3  2     0.0000000000e+00
 1  3  3     0.0000000000e+00
 2  1  1     1.0204611055e+01
 2  1  2     0.0000000000e+00
 2  1  3     0.0000000000e+00
 2  2  1     0.0000000000e+00
 2  2  2    -1.7183459598e+02
 2  2  3     0.0000000000e+00
 2  3  1     0.0000000000e+00
 2  3  2     0.0000000000e+00
 2  3  3     1.2843879017e+01
 3  1  1     0.0000000000e+00
 3  1  2     0.0000000000e+00
 3  1  3     0.0000000000e+00
 3  2  1     0.0000000000e+00
 3  2  2     0.0000000000e+00
 3  2  3     1.2843879017e+01
 3  3  1     0.0000000000e+00
 3  3  2     1.2581607618e+01
 3  3  3     0.0000000000e+00

    3
0.0000000000e+00 0.0000000000e+00 0.0000000000e+00
2.4877056424e+00 0.0000000000e+00 0.0000000000e+00
     1      1      1
 1  1  1    -6.0485204231e+00
 1  1  2     3.9207721976e-01
 1  1  3     0.0000000000e+00
 1  2  1     1.3919036784e+00
 1  2  2     1.6939172474e+00
 1  2  3     0.0000000000e+00
 1  3  1     0.0000000000e+00
 1  3  2     0.0000000000e+00
 1  3  3     1.7179265511e+00
 2  1  1     1.3919036784e+00
 2  1  2     1.6939172474e+00
 2  1  3     0.0000000000e+00
 2  2  1     1.5004025659e+00
 2  2  2     1.6020041017e+00
 2  2  3     0.0000000000e+00
 2  3  1     0.0000000000e+00
 2  3  2     0.0000000000e+00
 2  3  3     5.9405398121e-01
 3  1  1     0.0000000000e+00
 3  1  2     0.0000000000e+00
 3  1  3     1.7179265511e+00
 3  2  1     0.0000000000e+00
 3  2  2     0.0000000000e+00
 3  2  3     5.9405398121e-01
 3  3  1    -6.3340266142e-02
 3  3  2     2.6941913938e-01
 3  3  3     0.0000000000e+00

    4
0.0000000000e+00 0.0000000000e+00 0.0000000000e+00
2.4877056424e+00 0.0000000000e+00 0.0000000000e+00
     1      1      2
 1  1  1    -1.1462672055e+00
 1  1  2     3.1064297773e-01
 1  1  3     0.0000000000e+00
 1  2  1    -1.0059383829e+00
 1  2  2    -1.1422176715e+00
 1  2  3     0.0000000000e+00
 1  3  1     0.0000000000e+00
 1  3  2     0.0000000000e+00
 1  3  3    -1.6968230059e-01
 2  1  1    -1.0059383829e+00
 2  1  2    -1.1422176715e+00
 2  1  3     0.0000000000e+00
 2  2  1     1.1381681374e+00
 2  2  2    -3.1531897688e-01
 2  2  3     0.0000000000e+00
 2  3  1     0.0000000000e+00
 2  3  2     0.0000000000e+00
 2  3  3    -9.7966121920e-02
 3  1  1     0.0000000000e+00
 3  1  2     0.0000000000e+00
 3  1  3    -1.6968230059e-01
 3  2  1     0.0000000000e+00
 3  2  2     0.0000000000e+00
 3  2  3    -9.7966121920e-02
 3  3  1    -3.7520528142e-01
 3  3  2    -2.1662487023e-01
 3  3  3     0.0000000000e+00

    5
0.0000000000e+00 0.0000000000e+00 0.0000000000e+00
-2.4877056424e+00 0.0000000000e+00 0.0000000000e+00
     1      1      1
 1  1  1     6.0485204231e+00
 1  1  2     3.9207721976e-01
 1  1  3     0.0000000000e+00
 1  2  1     1.3919036784e+00
 1  2  2    -1.6939172474e+00
 1  2  3     0.0000000000e+00
 1  3  1     0.0000000000e+00
 1  3  2     0.0000000000e+00
 1  3  3    -1.7179265511e+00
 2  1  1     1.3919036784e+00
 2  1  2    -1.6939172474e+00
 2  1  3     0.0000000000e+00
 2  2  1    -1.5004025659e+00
 2  2  2     1.6020041017e+00
 2  2  3     0.0000000000e+00
 2  3  1     0.0000000000e+00
 2  3  2     0.0000000000e+00
 2  3  3     5.9405398121e-01
 3  1  1     0.0000000000e+00
 3  1  2     0.0000000000e+00
 3  1  3    -1.7179265511e+00
 3  2  1     0.0000000000e+00
 3  2  2     0.0000000000e+00
 3  2  3     5.9405398121e-01
 3  3  1     6.3340266142e-02
 3  3  2     2.6941913938e-01
 3  3  3     0.0000000000e+00

    6
0.0000000000e+00 0.0000000000e+00 0.0000000000e+00
-2.4877056424e+00 0.0000000000e+00 0.0000000000e+00
     1      1      2
 1  1  1     1.1462672055e+00
 1  1  2     3.1064297773e-01
 1  1  3     0.0000000000e+00
 1  2  1    -1.0059383829e+00
 1  2  2     1.1422176715e+00
 1  2  3     0.0000000000e+00
 1  3  1     0.0000000000e+00
 1  3  2     0.0000000000e+00
 1  3  3     1.6968230059e-01
 2  1  1    -1.0059383829e+00
 2  1  2     1.1422176715e+00
 2  1  3     0.0000000000e+00
 2  2  1    -1.1381681374e+00
 2  2  2    -3.1531897688e-01
 2  2  3     0.0000000000e+00
 2  3  1     0.0000000000e+00
 2  3  2     0.0000000000e+00
 2  3  3    -9.7966121920e-02
 3  1  1     0.0000000000e+00
 3  1  2     0.0000000000e+00
 3  1  3     1.6968230059e-01
 3  2  1     0.0000000000e+00
 3  2  2     0.0000000000e+00
 3  2  3    -9.7966121920e-02
 3  3  1     3.7520528142e-01
 3  3  2    -2.1662487023e-01
 3  3  3     0.0000000000e+00

    7
0.0000000000e+00 0.0000000000e+00 0.0000000000e+00
-1.2438528212e+00 2.1544162834e+00 0.0000000000e+00
     1      1      1
 1  1  1    -2.8051552123e+00
 1  1  2    -6.7432414782e-01
 1  1  3     0.0000000000e+00
 1  2  1    -1.0066487469e+00
 1  2  2     2.3896566061e+00
 1  2  3     0.0000000000e+00
 1  3  1     0.0000000000e+00
 1  3  2     0.0000000000e+00
 1  3  3    -1.3734291145e+00
 2  1  1    -1.0066487469e+00
 2  1  2     2.3896566061e+00
 2  1  3     0.0000000000e+00
 2  2  1     3.3522890594e+00
 2  2  2    -4.2615021166e+00
 2  2  3     0.0000000000e+00
 2  3  1     0.0000000000e+00
 2  3  2     0.0000000000e+00
 2  3  3     1.1907410445e+00
 3  1  1     0.0000000000e+00
 3  1  2     0.0000000000e+00
 3  1  3    -1.3734291145e+00
 3  2  1     0.0000000000e+00
 3  2  2     0.0000000000e+00
 3  2  3     1.1907410445e+00
 3  3  1    -2.0165368590e-01
 3  3  2    -1.8956384925e-01
 3  3  3     0.0000000000e+00

    8
0.0000000000e+00 0.0000000000e+00 0.0000000000e+00
-1.2438528212e+00 2.1544162834e+00 0.0000000000e+00
     1      1      2
 1  1  1     6.6628075462e-01
 1  1  2    -8.7828361875e-01
 1  1  3     0.0000000000e+00
 1  2  1    -2.0756905782e-01
 1  2  2     1.0164781082e-01
 1  2  3     0.0000000000e+00
 1  3  1     0.0000000000e+00
 1  3  2     0.0000000000e+00
 1  3  3     6.8509382889e-02
 2  1  1    -2.0756905782e-01
 2  1  2     1.0164781082e-01
 2  1  3     0.0000000000e+00
 2  2  1     2.9506258348e-01
 2  2  2     7.6411046084e-01
 2  2  3     0.0000000000e+00
 2  3  1     0.0000000000e+00
 2  3  2     0.0000000000e+00
 2  3  3    -2.2692837959e-01
 3  1  1     0.0000000000e+00
 3  1  2     0.0000000000e+00
 3  1  3     6.8509382889e-02
 3  2  1     0.0000000000e+00
 3  2  2     0.0000000000e+00
 3  2  3    -2.2692837959e-01
 3  3  1     3.7775968348e-01
 3  3  2    -3.6899718782e-01
 3  3  3     0.0000000000e+00

    9
0.0000000000e+00 0.0000000000e+00 0.0000000000e+00
1.2438528212e+00 2.1544162834e+00 0.0000000000e+00
     1      1      1
 1  1  1     2.8051552123e+00
 1  1  2    -6.7432414782e-01
 1  1  3     0.0000000000e+00
 1  2  1    -1.0066487469e+00
 1  2  2    -2.3896566061e+00
 1  2  3     0.0000000000e+00
 1  3  1     0.0000000000e+00
 1  3  2     0.0000000000e+00
 1  3  3     1.3734291145e+00
 2  1  1    -1.0066487469e+00
 2  1  2    -2.3896566061e+00
 2  1  3     0.0000000000e+00
 2  2  1    -3.3522890594e+00
 2  2  2    -4.2615021166e+00
 2  2  3     0.0000000000e+00
 2  3  1     0.0000000000e+00
 2  3  2     0.0000000000e+00
 2  3  3     1.1907410445e+00
 3  1  1     0.0000000000e+00
 3  1  2     0.0000000000e+00
 3  1  3     1.3734291145e+00
 3  2  1     0.0000000000e+00
 3  2  2     0.0000000000e+00
 3  2  3     1.1907410445e+00
 3  3  1     2.0165368590e-01
 3  3  2    -1.8956384925e-01
 3  3  3     0.0000000000e+00

   10
0.0000000000e+00 0.0000000000e+00 0.0000000000e+00
1.2438528212e+00 2.1544162834e+00 0.0000000000e+00
     1      1      2
 1  1  1    -6.6628075462e-01
 1  1  2    -8.7828361875e-01
 1  1  3     0.0000000000e+00
 1  2  1    -2.0756905782e-01
 1  2  2    -1.0164781082e-01
 1  2  3     0.0000000000e+00
 1  3  1     0.0000000000e+00
 1  3  2     0.0000000000e+00
 1  3  3    -6.8509382889e-02
 2  1  1    -2.0756905782e-01
 2  1  2    -1.0164781082e-01
 2  1  3     0.0000000000e+00
 2  2  1    -2.9506258348e-01
 2  2  2     7.6411046084e-01
 2  2  3     0.0000000000e+00
 2  3  1     0.0000000000e+00
 2  3  2     0.0000000000e+00
 2  3  3    -2.2692837959e-01
 3  1  1     0.0000000000e+00
 3  1  2     0.0000000000e+00
 3  1  3    -6.8509382889e-02
 3  2  1     0.0000000000e+00
 3  2  2     0.0000000000e+00
 3  2  3    -2.2692837959e-01
 3  3  1    -3.7775968348e-01
 3  3  2    -3.6899718782e-01
 3  3  3     0.0000000000e+00

   11
0.0000000000e+00 0.0000000000e+00 0.0000000000e+00
3.7315584635e+00 2.1544162834e+00 0.0000000000e+00
     1      1      1
 1  1  1    -1.3513469920e-01
 1  1  2     3.9067851603e-02
 1  1  3     0.0000000000e+00
 1  2  1     2.8923056999e-01
 1  2  2     9.9386613069e-02
 1  2  3     0.0000000000e+00
 1  3  1     0.0000000000e+00
 1  3  2     0.0000000000e+00
 1  3  3    -2.3480335115e-02
 2  1  1     2.8923056999e-01
 2  1  2     9.9386613069e-02
 2  1  3     0.0000000000e+00
 2  2  1    -3.3390792534e-01
 2  2  2    -3.0986973715e-01
 2  2  3     0.0000000000e+00
 2  3  1     0.0000000000e+00
 2  3  2     0.0000000000e+00
 2  3  3    -1.3556377799e-02
 3  1  1     0.0000000000e+00
 3  1  2     0.0000000000e+00
 3  1  3    -2.3480335115e-02
 3  2  1     0.0000000000e+00
 3  2  2     0.0000000000e+00
 3  2  3    -1.3556377799e-02
 3  3  1     7.7289898117e-02
 3  3  2     4.4623343483e-02
 3  3  3     0.0000000000e+00

   12
0.0000000000e+00 0.0000000000e+00 0.0000000000e+00
-3.7315584635e+00 2.1544162834e+00 0.0000000000e+00
     1      1      1
 1  1  1     1.3513469920e-01
 1  1  2     3.9067851603e-02
 1  1  3     0.0000000000e+00
 1  2  1     2.8923056999e-01
 1  2  2    -9.9386613069e-02
 1  2  3     0.0000000000e+00
 1  3  1     0.0000000000e+00
 1  3  2     0.0000000000e+00
 1  3  3     2.3480335115e-02
 2  1  1     2.8923056999e-01
 2  1  2    -9.9386613069e-02
 2  1  3     0.0000000000e+00
 2  2  1     3.3390792534e-01
 2  2  2    -3.0986973715e-01
 2  2  3     0.0000000000e+00
 2  3  1     0.0000000000e+00
 2  3  2     0.0000000000e+00
 2  3  3    -1.3556377799e-02
 3  1  1     0.0000000000e+00
 3  1  2     0.0000000000e+00
 3  1  3     2.3480335115e-02
 3  2  1     0.0000000000e+00
 3  2  2     0.0000000000e+00
 3  2  3    -1.3556377799e-02
 3  3  1    -7.7289898117e-02
 3  3  2     4.4623343483e-02
 3  3  3     0.0000000000e+00

   13
0.0000000000e+00 0.0000000000e+00 0.0000000000e+00
2.4877056424e+00 -4.3088325668e+00 0.0000000000e+00
     1      1      2
 1  1  1     4.8643970409e-01
 1  1  2    -4.0544772397e-02
 1  1  3     0.0000000000e+00
 1  2  1    -5.4340415946e-01
 1  2  2     3.7950357190e-01
 1  2  3     0.0000000000e+00
 1  3  1     0.0000000000e+00
 1  3  2     0.0000000000e+00
 1  3  3    -1.6227105012e-01
 2  1  1    -5.4340415946e-01
 2  1  2     3.7950357190e-01
 2  1  3     0.0000000000e+00
 2  2  1    -1.0464489022e-01
 2  2  2     9.3017910391e-01
 2  2  3     0.0000000000e+00
 2  3  1     0.0000000000e+00
 2  3  2     0.0000000000e+00
 2  3  3     1.7279505578e-01
 3  1  1     0.0000000000e+00
 3  1  2     0.0000000000e+00
 3  1  3    -1.6227105012e-01
 3  2  1     0.0000000000e+00
 3  2  2     0.0000000000e+00
 3  2  3     1.7279505578e-01
 3  3  1    -1.3068109683e-01
 3  3  2     5.1164807633e-01
 3  3  3     0.0000000000e+00

   14
0.0000000000e+00 0.0000000000e+00 0.0000000000e+00
0.0000000000e+00 4.3088325668e+00 0.0000000000e+00
     1      1      1
 1  1  1     0.0000000000e+00
 1  1  2     6.0574176723e-01
 1  1  3     0.0000000000e+00
 1  2  1     9.1731547899e-02
 1  2  2     0.0000000000e+00
 1  2  3     0.0000000000e+00
 1  3  1     0.0000000000e+00
 1  3  2     0.0000000000e+00
 1  3  3     0.0000000000e+00
 2  1  1     9.1731547899e-02
 2  1  2     0.0000000000e+00
 2  1  3     0.0000000000e+00
 2  2  1     0.0000000000e+00
 2  2  2    -5.5331922111e-01
 2  2  3     0.0000000000e+00
 2  3  1     0.0000000000e+00
 2  3  2     0.0000000000e+00
 2  3  3     2.9073186431e-02
 3  1  1     0.0000000000e+00
 3  1  2     0.0000000000e+00
 3  1  3     0.0000000000e+00
 3  2  1     0.0000000000e+00
 3  2  2     0.0000000000e+00
 3  2  3     2.9073186431e-02
 3  3  1     0.0000000000e+00
 3  3  2     1.2138261718e-01
 3  3  3     0.0000000000e+00

   15
0.0000000000e+00 0.0000000000e+00 0.0000000000e+00
-2.4877056424e+00 -4.3088325668e+00 0.0000000000e+00
     1      1      2
 1  1  1    -4.8643970409e-01
 1  1  2    -4.0544772397e-02
 1  1  3     0.0000000000e+00
 1  2  1    -5.4340415946e-01
 1  2  2    -3.7950357190e-01
 1  2  3     0.0000000000e+00
 1  3  1     0.0000000000e+00
 1  3  2     0.0000000000e+00
 1  3  3     1.6227105012e-01
 2  1  1    -5.4340415946e-01
 2  1  2    -3.7950357190e-01
 2  1  3     0.0000000000e+00
 2  2  1     1.0464489022e-01
 2  2  2     9.3017910391e-01
 2  2  3     0.0000000000e+00
 2  3  1     0.0000000000e+00
 2  3  2     0.0000000000e+00
 2  3  3     1.7279505578e-01
 3  1  1     0.0000000000e+00
 3  1  2     0.0000000000e+00
 3  1  3     1.6227105012e-01
 3  2  1     0.0000000000e+00
 3  2  2     0.0000000000e+00
 3  2  3     1.7279505578e-01
 3  3  1     1.3068109683e-01
 3  3  2     5.1164807633e-01
 3  3  3     0.0000000000e+00

   16
0.0000000000e+00 0.0000000000e+00 0.0000000000e+00
0.0000000000e+00 -4.3088325668e+00 0.0000000000e+00
     1      1      1
 1  1  1     0.0000000000e+00
 1  1  2     6.1741334335e-01
 1  1  3     0.0000000000e+00
 1  2  1     1.1708790657e-01
 1  2  2     0.0000000000e+00
 1  2  3     0.0000000000e+00
 1  3  1     0.0000000000e+00
 1  3  2     0.0000000000e+00
 1  3  3     0.0000000000e+00
 2  1  1     1.1708790657e-01
 2  1  2     0.0000000000e+00
 2  1  3     0.0000000000e+00
 2  2  1     0.0000000000e+00
 2  2  2    -7.5809572259e-02
 2  2  3     0.0000000000e+00
 2  3  1     0.0000000000e+00
 2  3  2     0.0000000000e+00
 2  3  3     2.7112755598e-02
 3  1  1     0.0000000000e+00
 3  1  2     0.0000000000e+00
 3  1  3     0.0000000000e+00
 3  2  1     0.0000000000e+00
 3  2  2     0.0000000000e+00
 3  2  3     2.7112755598e-02
 3  3  1     0.0000000000e+00
 3  3  2    -8.9246686967e-02
 3  3  3     0.0000000000e+00

   17
0.0000000000e+00 0.0000000000e+00 0.0000000000e+00
2.7755575616e-16 -4.3088325668e+00 0.0000000000e+00
     1      1      2
 1  1  1     0.0000000000e+00
 1  1  2    -1.6607220638e+00
 1  1  3     0.0000000000e+00
 1  2  1     9.7244065740e-01
 1  2  2     0.0000000000e+00
 1  2  3     0.0000000000e+00
 1  3  1     0.0000000000e+00
 1  3  2     0.0000000000e+00
 1  3  3     0.0000000000e+00
 2  1  1     9.7244065740e-01
 2  1  2     0.0000000000e+00
 2  1  3     0.0000000000e+00
 2  2  1     0.0000000000e+00
 2  2  2     1.6700740621e+00
 2  2  3     0.0000000000e+00
 2  3  1     0.0000000000e+00
 2  3  2     0.0000000000e+00
 2  3  3     1.9593224384e-01
 3  1  1     0.0000000000e+00
 3  1  2     0.0000000000e+00
 3  1  3     0.0000000000e+00
 3  2  1     0.0000000000e+00
 3  2  2     0.0000000000e+00
 3  2  3     1.9593224384e-01
 3  3  1     0.0000000000e+00
 3  3  2     4.3324974046e-01
 3  3  3     0.0000000000e+00

   18
0.0000000000e+00 0.0000000000e+00 0.0000000000e+00
1.2438528212e+00 -2.1544162834e+00 0.0000000000e+00
     1      1      1
 1  1  1    -6.5110752256e-01
 1  1  2     1.4626572842e+00
 1  1  3     0.0000000000e+00
 1  2  1     7.9515542472e-01
 1  2  2    -4.1189942594e+00
 1  2  3     0.0000000000e+00
 1  3  1     0.0000000000e+00
 1  3  2     0.0000000000e+00
 1  3  3     3.4449743662e-01
 2  1  1     7.9515542472e-01
 2  1  2    -4.1189942594e+00
 2  1  3     0.0000000000e+00
 2  2  1    -3.3498764876e+00
 2  2  2     1.4790876588e+00
 2  2  3     0.0000000000e+00
 2  3  1     0.0000000000e+00
 2  3  2     0.0000000000e+00
 2  3  3    -1.7847950257e+00
 3  1  1     0.0000000000e+00
 3  1  2     0.0000000000e+00
 3  1  3     3.4449743662e-01
 3  2  1     0.0000000000e+00
 3  2  2     0.0000000000e+00
 3  2  3    -1.7847950257e+00
 3  3  1    -2.6499395204e-01
 3  3  2    -7.9855290131e-02
 3  3  3     0.0000000000e+00

   19
0.0000000000e+00 0.0000000000e+00 0.0000000000e+00
1.2438528212e+00 -2.1544162834e+00 0.0000000000e+00
     1      1      2
 1  1  1    -1.0487257267e+02
 1  1  2     7.0752819118e+01
 1  1  3     0.0000000000e+00
 1  2  1     7.1004964249e+01
 1  2  2    -3.5103100283e+01
 1  2  3     0.0000000000e+00
 1  3  1     0.0000000000e+00
 1  3  2     0.0000000000e+00
 1  3  3     1.1123125512e+01
 2  1  1     7.1004964249e+01
 2  1  2    -3.5103100283e+01
 2  1  3     0.0000000000e+00
 2  2  1    -3.4666372106e+01
 2  2  2     9.8100282121e+00
 2  2  3     0.0000000000e+00
 2  3  1     0.0000000000e+00
 2  3  2     0.0000000000e+00
 2  3  3    -6.4219395085e+00
 3  1  1     0.0000000000e+00
 3  1  2     0.0000000000e+00
 3  1  3     1.1123125512e+01
 3  2  1     0.0000000000e+00
 3  2  2     0.0000000000e+00
 3  2  3    -6.4219395085e+00
 3  3  1     1.0895991818e+01
 3  3  2    -6.2908038090e+00
 3  3  3     0.0000000000e+00

   20
0.0000000000e+00 0.0000000000e+00 0.0000000000e+00
3.7315584635e+00 -2.1544162834e+00 0.0000000000e+00
     1      1      1
 1  1  1    -1.8852351137e-01
 1  1  2     2.0057564794e-01
 1  1  3     0.0000000000e+00
 1  2  1     4.5758075760e-01
 1  2  2    -2.1122313970e-01
 1  2  3     0.0000000000e+00
 1  3  1     0.0000000000e+00
 1  3  2     0.0000000000e+00
 1  3  3     2.5178118018e-02
 2  1  1     4.5758075760e-01
 2  1  2    -2.1122313970e-01
 2  1  3     0.0000000000e+00
 2  2  1     2.3392276804e-01
 2  2  2    -2.2678692100e-01
 2  2  3     0.0000000000e+00
 2  3  1     0.0000000000e+00
 2  3  2     0.0000000000e+00
 2  3  3    -1.4536593216e-02
 3  1  1     0.0000000000e+00
 3  1  2     0.0000000000e+00
 3  1  3     2.5178118018e-02
 3  2  1     0.0000000000e+00
 3  2  2     0.0000000000e+00
 3  2  3    -1.4536593216e-02
 3  3  1     1.0512043006e-01
 3  3  2    -6.0691308591e-02
 3  3  3     0.0000000000e+00

   21
0.0000000000e+00 0.0000000000e+00 0.0000000000e+00
3.7315584635e+00 -2.1544162834e+00 0.0000000000e+00
     1      1      2
 1  1  1    -5.3899138407e-02
 1  1  2    -6.2432075527e-01
 1  1  3     0.0000000000e+00
 1  2  1    -7.9217592914e-01
 1  2  2     1.5191384896e-01
 1  2  3     0.0000000000e+00
 1  3  1     0.0000000000e+00
 1  3  2     0.0000000000e+00
 1  3  3    -2.3078043301e-01
 2  1  1    -7.9217592914e-01
 2  1  2     1.5191384896e-01
 2  1  3     0.0000000000e+00
 2  2  1    -5.2564938583e-01
 2  2  2    -1.5114041833e-01
 2  2  3     0.0000000000e+00
 2  3  1     0.0000000000e+00
 2  3  2     0.0000000000e+00
 2  3  3     5.4133323818e-02
 3  1  1     0.0000000000e+00
 3  1  2     0.0000000000e+00
 3  1  3    -2.3078043301e-01
 3  2  1     0.0000000000e+00
 3  2  2     0.0000000000e+00
 3  2  3     5.4133323818e-02
 3  3  1    -5.0844078032e-01
 3  3  2    -1.4265088852e-01
 3  3  3     0.0000000000e+00

   22
0.0000000000e+00 0.0000000000e+00 0.0000000000e+00
-3.7315584635e+00 -2.1544162834e+00 0.0000000000e+00
     1      1      1
 1  1  1     1.8852351137e-01
 1  1  2     2.0057564794e-01
 1  1  3     0.0000000000e+00
 1  2  1     4.5758075760e-01
 1  2  2     2.1122313970e-01
 1  2  3     0.0000000000e+00
 1  3  1     0.0000000000e+00
 1  3  2     0.0000000000e+00
 1  3  3    -2.5178118018e-02
 2  1  1     4.5758075760e-01
 2  1  2     2.1122313970e-01
 2  1  3     0.0000000000e+00
 2  2  1    -2.3392276804e-01
 2  2  2    -2.2678692100e-01
 2  2  3     0.0000000000e+00
 2  3  1     0.0000000000e+00
 2  3  2     0.0000000000e+00
 2  3  3    -1.4536593216e-02
 3  1  1     0.0000000000e+00
 3  1  2     0.0000000000e+00
 3  1  3    -2.5178118018e-02
 3  2  1     0.0000000000e+00
 3  2  2     0.0000000000e+00
 3  2  3    -1.4536593216e-02
 3  3  1    -1.0512043006e-01
 3  3  2    -6.0691308591e-02
 3  3  3     0.0000000000e+00

   23
0.0000000000e+00 0.0000000000e+00 0.0000000000e+00
-3.7315584635e+00 -2.1544162834e+00 0.0000000000e+00
     1      1      2
 1  1  1     5.3899138407e-02
 1  1  2    -6.2432075527e-01
 1  1  3     0.0000000000e+00
 1  2  1    -7.9217592914e-01
 1  2  2    -1.5191384896e-01
 1  2  3     0.0000000000e+00
 1  3  1     0.0000000000e+00
 1  3  2     0.0000000000e+00
 1  3  3     2.3078043301e-01
 2  1  1    -7.9217592914e-01
 2  1  2    -1.5191384896e-01
 2  1  3     0.0000000000e+00
 2  2  1     5.2564938583e-01
 2  2  2    -1.5114041833e-01
 2  2  3     0.0000000000e+00
 2  3  1     0.0000000000e+00
 2  3  2     0.0000000000e+00
 2  3  3     5.4133323818e-02
 3  1  1     0.0000000000e+00
 3  1  2     0.0000000000e+00
 3  1  3     2.3078043301e-01
 3  2  1     0.0000000000e+00
 3  2  2     0.0000000000e+00
 3  2  3     5.4133323818e-02
 3  3  1     5.0844078032e-01
 3  3  2    -1.4265088852e-01
 3  3  3     0.0000000000e+00

   24
0.0000000000e+00 0.0000000000e+00 0.0000000000e+00
-1.2438528212e+00 -2.1544162834e+00 0.0000000000e+00
     1      1      1
 1  1  1     6.5110752256e-01
 1  1  2     1.4626572842e+00
 1  1  3     0.0000000000e+00
 1  2  1     7.9515542472e-01
 1  2  2     4.1189942594e+00
 1  2  3     0.0000000000e+00
 1  3  1     0.0000000000e+00
 1  3  2     0.0000000000e+00
 1  3  3    -3.4449743662e-01
 2  1  1     7.9515542472e-01
 2  1  2     4.1189942594e+00
 2  1  3     0.0000000000e+00
 2  2  1     3.3498764876e+00
 2  2  2     1.4790876588e+00
 2  2  3     0.0000000000e+00
 2  3  1     0.0000000000e+00
 2  3  2     0.0000000000e+00
 2  3  3    -1.7847950257e+00
 3  1  1     0.0000000000e+00
 3  1  2     0.0000000000e+00
 3  1  3    -3.4449743662e-01
 3  2  1     0.0000000000e+00
 3  2  2     0.0000000000e+00
 3  2  3    -1.7847950257e+00
 3  3  1     2.6499395204e-01
 3  3  2    -7.9855290131e-02
 3  3  3     0.0000000000e+00

   25
0.0000000000e+00 0.0000000000e+00 0.0000000000e+00
-1.2438528212e+00 -2.1544162834e+00 0.0000000000e+00
     1      1      2
 1  1  1     1.0487257267e+02
 1  1  2     7.0752819118e+01
 1  1  3     0.0000000000e+00
 1  2  1     7.1004964249e+01
 1  2  2     3.5103100283e+01
 1  2  3     0.0000000000e+00
 1  3  1     0.0000000000e+00
 1  3  2     0.0000000000e+00
 1  3  3    -1.1123125512e+01
 2  1  1     7.1004964249e+01
 2  1  2     3.5103100283e+01
 2  1  3     0.0000000000e+00
 2  2  1     3.4666372106e+01
 2  2  2     9.8100282121e+00
 2  2  3     0.0000000000e+00
 2  3  1     0.0000000000e+00
 2  3  2     0.0000000000e+00
 2  3  3    -6.4219395085e+00
 3  1  1     0.0000000000e+00
 3  1  2     0.0000000000e+00
 3  1  3    -1.1123125512e+01
 3  2  1     0.0000000000e+00
 3  2  2     0.0000000000e+00
 3  2  3    -6.4219395085e+00
 3  3  1    -1.0895991818e+01
 3  3  2    -6.2908038090e+00
 3  3  3     0.0000000000e+00

   26
0.0000000000e+00 0.0000000000e+00 0.0000000000e+00
0.0000000000e+00 0.0000000000e+00 0.0000000000e+00
     1      2      1
 1  1  1     0.0000000000e+00
 1  1  2     1.0204611055e+01
 1  1  3     0.0000000000e+00
 1  2  1     1.0708901317e+01
 1  2  2     0.0000000000e+00
 1  2  3     0.0000000000e+00
 1  3  1     0.0000000000e+00
 1  3  2     0.0000000000e+00
 1  3  3     0.0000000000e+00
 2  1  1     1.0204611055e+01
 2  1  2     0.0000000000e+00
 2  1  3     0.0000000000e+00
 2  2  1     0.0000000000e+00
 2  2  2    -1.7183459598e+02
 2  2  3     0.0000000000e+00
 2  3  1     0.0000000000e+00
 2  3  2     0.0000000000e+00
 2  3  3     1.2843879017e+01
 3  1  1     0.0000000000e+00
 3  1  2     0.0000000000e+00
 3  1  3     0.0000000000e+00
 3  2  1     0.0000000000e+00
 3  2  2     0.0000000000e+00
 3  2  3     1.2581607618e+01
 3  3  1     0.0000000000e+00
 3  3  2     1.2843879017e+01
 3  3  3     0.0000000000e+00

   27
0.0000000000e+00 0.0000000000e+00 0.0000000000e+00
0.0000000000e+00 0.0000000000e+00 0.0000000000e+00
     1      2      2
 1  1  1     0.0000000000e+00
 1  1  2    -1.2837774020e+01
 1  1  3     0.0000000000e+00
 1  2  1    -1.2837774020e+01
 1  2  2     0.0000000000e+00
 1  2  3     0.0000000000e+00
 1  3  1     0.0000000000e+00
 1  3  2     0.0000000000e+00
 1  3  3     0.0000000000e+00
 2  1  1    -1.3329335621e+01
 2  1  2     0.0000000000e+00
 2  1  3     0.0000000000e+00
 2  2  1     0.0000000000e+00
 2  2  2     1.6991180544e+02
 2  2  3     0.0000000000e+00
 2  3  1     0.0000000000e+00
 2  3  2     0.0000000000e+00
 2  3  3    -1.2597956397e+01
 3  1  1     0.0000000000e+00
 3  1  2     0.0000000000e+00
 3  1  3     0.0000000000e+00
 3  2  1     0.0000000000e+00
 3  2  2     0.0000000000e+00
 3  2  3    -1.4445615011e+01
 3  3  1     0.0000000000e+00
 3  3  2    -1.4445615011e+01
 3  3  3     0.0000000000e+00

   28
0.0000000000e+00 0.0000000000e+00 0.0000000000e+00
2.4877056424e+00 0.0000000000e+00 0.0000000000e+00
     1      2      1
 1  1  1     9.2719142712e-01
 1  1  2     2.4128637678e-01
 1  1  3     0.0000000000e+00
 1  2  1    -7.8834594073e-01
 1  2  2    -1.7834116358e-01
 1  2  3     0.0000000000e+00
 1  3  1     0.0000000000e+00
 1  3  2     0.0000000000e+00
 1  3  3    -4.8123130924e-01
 2  1  1     5.4903856285e-01
 2  1  2     4.3085027938e-01
 2  1  3     0.0000000000e+00
 2  2  1    -8.4414459607e-01
 2  2  2    -1.1363942149e+00
 2  2  3     0.0000000000e+00
 2  3  1     0.0000000000e+00
 2  3  2     0.0000000000e+00
 2  3  3     1.1163327964e-01
 3  1  1     0.0000000000e+00
 3  1  2     0.0000000000e+00
 3  1  3    -1.7885574823e-02
 3  2  1     0.0000000000e+00
 3  2  2     0.0000000000e+00
 3  2  3    -1.4551195383e-01
 3  3  1     5.3217819277e-01
 3  3  2     7.8625481691e-01
 3  3  3     0.0000000000e+00

   29
0.0000000000e+00 0.0000000000e+00 0.0000000000e+00
2.4877056424e+00 0.0000000000e+00 0.0000000000e+00
     1      2      2
 1  1  1     4.1249830493e-01
 1  1  2    -4.8784351338e-01
 1  1  3     0.0000000000e+00
 1  2  1     4.2027561711e-01
 1  2  2     1.0446132120e-01
 1  2  3     0.0000000000e+00
 1  3  1     0.0000000000e+00
 1  3  2     0.0000000000e+00
 1  3  3     1.1320939225e-01
 2  1  1     9.6868496753e-01
 2  1  2    -8.9992847659e-01
 2  1  3     0.0000000000e+00
 2  2  1    -1.4817232061e+00
 2  2  2     5.3827291409e-01
 2  2  3     0.0000000000e+00
 2  3  1     0.0000000000e+00
 2  3  2     0.0000000000e+00
 2  3  3    -4.2400963581e-02
 3  1  1     0.0000000000e+00
 3  1  2     0.0000000000e+00
 3  1  3    -2.3645311990e-01
 3  2  1     0.0000000000e+00
 3  2  2     0.0000000000e+00
 3  2  3    -2.1975887995e-01
 3  3  1     5.5704784009e-01
 3  3  2    -4.4033104544e-01
 3  3  3     0.0000000000e+00

   30
0.0000000000e+00 0.0000000000e+00 0.0000000000e+00
-2.4877056424e+00 0.0000000000e+00 0.0000000000e+00
     1      2      1
 1  1  1    -9.2719142712e-01
 1  1  2     2.4128637678e-01
 1  1  3     0.0000000000e+00
 1  2  1    -7.8834594073e-01
 1  2  2     1.7834116358e-01
 1  2  3     0.0000000000e+00
 1  3  1     0.0000000000e+00
 1  3  2     0.0000000000e+00
 1  3  3     4.8123130924e-01
 2  1  1     5.4903856285e-01
 2  1  2    -4.3085027938e-01
 2  1  3     0.0000000000e+00
 2  2  1     8.4414459607e-01
 2  2  2    -1.1363942149e+00
 2  2  3     0.0000000000e+00
 2  3  1     0.0000000000e+00
 2  3  2     0.0000000000e+00
 2  3  3     1.1163327964e-01
 3  1  1     0.0000000000e+00
 3  1  2     0.0000000000e+00
 3  1  3     1.7885574823e-02
 3  2  1     0.0000000000e+00
 3  2  2     0.0000000000e+00
 3  2  3    -1.4551195383e-01
 3  3  1    -5.3217819277e-01
 3  3  2     7.8625481691e-01
 3  3  3     0.0000000000e+00

   31
0.0000000000e+00 0.0000000000e+00 0.0000000000e+00
-2.4877056424e+00 0.0000000000e+00 0.0000000000e+00
     1      2      2
 1  1  1    -4.1249830493e-01
 1  1  2    -4.8784351338e-01
 1  1  3     0.0000000000e+00
 1  2  1     4.2027561711e-01
 1  2  2    -1.0446132120e-01
 1  2  3     0.0000000000e+00
 1  3  1     0.0000000000e+00
 1  3  2     0.0000000000e+00
 1  3  3    -1.1320939225e-01
 2  1  1     9.6868496753e-01
 2  1  2     8.9992847659e-01
 2  1  3     0.0000000000e+00
 2  2  1     1.4817232061e+00
 2  2  2     5.3827291409e-01
 2  2  3     0.0000000000e+00
 2  3  1     0.0000000000e+00
 2  3  2     0.0000000000e+00
 2  3  3    -4.2400963581e-02
 3  1  1     0.0000000000e+00
 3  1  2     0.0000000000e+00
 3  1  3     2.3645311990e-01
 3  2  1     0.0000000000e+00
 3  2  2     0.0000000000e+00
 3  2  3    -2.1975887995e-01
 3  3  1    -5.5704784009e-01
 3  3  2    -4.4033104544e-01
 3  3  3     0.0000000000e+00

   32
0.0000000000e+00 0.0000000000e+00 0.0000000000e+00
-1.2438528212e+00 2.1544162834e+00 0.0000000000e+00
     1      2      1
 1  1  1     1.6883175399e+00
 1  1  2     1.2757000991e+00
 1  1  3     0.0000000000e+00
 1  2  1     1.0246494318e+00
 1  2  2     7.0771668367e-01
 1  2  3     0.0000000000e+00
 1  3  1     0.0000000000e+00
 1  3  2     0.0000000000e+00
 1  3  3     1.6177634282e+00
 2  1  1    -4.3653736446e-01
 2  1  2     1.2614449331e+00
 2  1  3     0.0000000000e+00
 2  2  1    -2.8084407685e-01
 2  2  2     6.7839672606e-01
 2  2  3     0.0000000000e+00
 2  3  1     0.0000000000e+00
 2  3  2     0.0000000000e+00
 2  3  3     2.7311599383e-02
 3  1  1     0.0000000000e+00
 3  1  2     0.0000000000e+00
 3  1  3     8.2860861287e-01
 3  2  1     0.0000000000e+00
 3  2  2     0.0000000000e+00