  734

    1
0.0000000000e+00 0.0000000000e+00 0.0000000000e+00
0.0000000000e+00 0.0000000000e+00 0.0000000000e+00
     1      1      1
 1  1  1     0.0000000000e+00
 1  1  2    -1.7377063263e+02
 1  1  3     0.0000000000e+00
 1  2  1    -1.7377063263e+02
 1  2  2     0.0000000000e+00
 1  2  3     0.0000000000e+00
 1  3  1     0.0000000000e+00
 1  3  2     0.0000000000e+00
 1  3  3     0.0000000000e+00
 2  1  1    -1.7377063263e+02
 2  1  2     0.0000000000e+00
 2  1  3     0.0000000000e+00
 2  2  1     0.0000000000e+00
 2  2  2     1.7377063263e+02
 2  2  3     0.0000000000e+00
 2  3  1     0.0000000000e+00
 2  3  2     0.0000000000e+00
 2  3  3     0.0000000000e+00
 3  1  1     0.0000000000e+00
 3  1  2     0.0000000000e+00
 3  1  3     0.0000000000e+00
 3  2  1     0.0000000000e+00
 3  2  2     0.0000000000e+00
 3  2  3     0.0000000000e+00
 3  3  1     0.0000000000e+00
 3  3  2     0.0000000000e+00
 3  3  3     0.0000000000e+00

    2
0.0000000000e+00 0.0000000000e+00 0.0000000000e+00
0.0000000000e+00 0.0000000000e+00 0.0000000000e+00
     1      1      2
 1  1  1     0.0000000000e+00
 1  1  2     1.0759593049e+01
 1  1  3     0.0000000000e+00
 1  2  1     1.1963788565e+01
 1  2  2     0.0000000000e+00
 1  2  3     0.0000000000e+00
 1  3  1     0.0000000000e+00
 1  3  2     0.0000000000e+00
 1  3  3     0.0000000000e+00
 2  1  1     1.1963788565e+01
 2  1  2     0.0000000000e+00
 2  1  3     0.0000000000e+00
 2  2  1     0.0000000000e+00
 2  2  2    -1.9727613943e+02
 2  2  3     0.0000000000e+00
 2  3  1     0.0000000000e+00
 2  3  2     0.0000000000e+00
 2  3  3     1.5784082249e+01
 3  1  1     0.0000000000e+00
 3  1  2     0.0000000000e+00
 3  1  3     0.0000000000e+00
 3  2  1     0.0000000000e+00
 3  2  2     0.0000000000e+00
 3  2  3     1.5784082249e+01
 3  3  1     0.0000000000e+00
 3  3  2     1.3533280653e+01
 3  3  3     0.0000000000e+00

    3
0.0000000000e+00 0.0000000000e+00 0.0000000000e+00
2.4484106270e+00 0.0000000000e+00 0.0000000000e+00
     1      1      1
 1  1  1    -1.0713787291e+01
 1  1  2    -8.1533115834e-01
 1  1  3     0.0000000000e+00
 1  2  1     1.5763020260e+00
 1  2  2     2.7454184333e+00
 1  2  3     0.0000000000e+00
 1  3  1     0.0000000000e+00
 1  3  2     0.0000000000e+00
 1  3  3     2.4957407599e+00
 2  1  1     1.5763020260e+00
 2  1  2     2.7454184333e+00
 2  1  3     0.0000000000e+00
 2  2  1     2.0915053386e+00
 2  2  2     1.2141852098e+00
 2  2  3     0.0000000000e+00
 2  3  1     0.0000000000e+00
 2  3  2     0.0000000000e+00
 2  3  3     9.8777137322e-01
 3  1  1     0.0000000000e+00
 3  1  2     0.0000000000e+00
 3  1  3     2.4957407599e+00
 3  2  1     0.0000000000e+00
 3  2  2     0.0000000000e+00
 3  2  3     9.8777137322e-01
 3  3  1    -5.0267261937e-01
 3  3  2     5.1167613214e-01
 3  3  3     0.0000000000e+00

    4
0.0000000000e+00 0.0000000000e+00 0.0000000000e+00
2.4484106270e+00 0.0000000000e+00 0.0000000000e+00
     1      1      2
 1  1  1    -2.3929307274e+00
 1  1  2     1.1523134231e+00
 1  1  3     0.0000000000e+00
 1  2  1    -1.0290500414e+00
 1  2  2    -2.0570543592e+00
 1  2  3     0.0000000000e+00
 1  3  1     0.0000000000e+00
 1  3  2     0.0000000000e+00
 1  3  3     8.5590170524e-02
 2  1  1    -1.0290500414e+00
 2  1  2    -2.0570543592e+00
 2  1  3     0.0000000000e+00
 2  2  1     1.7211779911e+00
 2  2  2    -1.5401500462e+00
 2  2  3     0.0000000000e+00
 2  3  1     0.0000000000e+00
 2  3  2     0.0000000000e+00
 2  3  3     4.9415507992e-02
 3  1  1     0.0000000000e+00
 3  1  2     0.0000000000e+00
 3  1  3     8.5590170524e-02
 3  2  1     0.0000000000e+00
 3  2  2     0.0000000000e+00
 3  2  3     4.9415507992e-02
 3  3  1    -7.4216574199e-02
 3  3  2    -4.2848959092e-02
 3  3  3     0.0000000000e+00

    5
0.0000000000e+00 0.0000000000e+00 0.0000000000e+00
-2.4484106270e+00 0.0000000000e+00 0.0000000000e+00
     1      1      1
 1  1  1     1.0713787291e+01
 1  1  2    -8.1533115834e-01
 1  1  3     0.0000000000e+00
 1  2  1     1.5763020260e+00
 1  2  2    -2.7454184333e+00
 1  2  3     0.0000000000e+00
 1  3  1     0.0000000000e+00
 1  3  2     0.0000000000e+00
 1  3  3    -2.4957407599e+00
 2  1  1     1.5763020260e+00
 2  1  2    -2.7454184333e+00
 2  1  3     0.0000000000e+00
 2  2  1    -2.0915053386e+00
 2  2  2     1.2141852098e+00
 2  2  3     0.0000000000e+00
 2  3  1     0.0000000000e+00
 2  3  2     0.0000000000e+00
 2  3  3     9.8777137322e-01
 3  1  1     0.0000000000e+00
 3  1  2     0.0000000000e+00
 3  1  3    -2.4957407599e+00
 3  2  1     0.0000000000e+00
 3  2  2     0.0000000000e+00
 3  2  3     9.8777137322e-01
 3  3  1     5.0267261937e-01
 3  3  2     5.1167613214e-01
 3  3  3     0.0000000000e+00

    6
0.0000000000e+00 0.0000000000e+00 0.0000000000e+00
-2.4484106270e+00 0.0000000000e+00 0.0000000000e+00
     1      1      2
 1  1  1     2.3929307274e+00
 1  1  2     1.1523134231e+00
 1  1  3     0.0000000000e+00
 1  2  1    -1.0290500414e+00
 1  2  2     2.0570543592e+00
 1  2  3     0.0000000000e+00
 1  3  1     0.0000000000e+00
 1  3  2     0.0000000000e+00
 1  3  3    -8.5590170524e-02
 2  1  1    -1.0290500414e+00
 2  1  2     2.0570543592e+00
 2  1  3     0.0000000000e+00
 2  2  1    -1.7211779911e+00
 2  2  2    -1.5401500462e+00
 2  2  3     0.0000000000e+00
 2  3  1     0.0000000000e+00
 2  3  2     0.0000000000e+00
 2  3  3     4.9415507992e-02
 3  1  1     0.0000000000e+00
 3  1  2     0.0000000000e+00
 3  1  3    -8.5590170524e-02
 3  2  1     0.0000000000e+00
 3  2  2     0.0000000000e+00
 3  2  3     4.9415507992e-02
 3  3  1     7.4216574199e-02
 3  3  2    -4.2848959092e-02
 3  3  3     0.0000000000e+00

    7
0.0000000000e+00 0.0000000000e+00 0.0000000000e+00
-1.2242053135e+00 2.1203858019e+00 0.0000000000e+00
     1      1      1
 1  1  1    -2.7988257684e+00
 1  1  2    -1.3211080177e+00
 1  1  3     0.0000000000e+00
 1  2  1    -1.9506192580e+00
 1  2  2     4.3663773623e+00
 1  2  3     0.0000000000e+00
 1  3  1     0.0000000000e+00
 1  3  2     0.0000000000e+00
 1  3  3    -2.1033054823e+00
 2  1  1    -1.9506192580e+00
 2  1  2     4.3663773623e+00
 2  1  3     0.0000000000e+00
 2  2  1     6.7645490038e+00
 2  2  2    -6.3454342177e+00
 2  2  3     0.0000000000e+00
 2  3  1     0.0000000000e+00
 2  3  2     0.0000000000e+00
 2  3  3     1.6674892127e+00
 3  1  1     0.0000000000e+00
 3  1  2     0.0000000000e+00
 3  1  3    -2.1033054823e+00
 3  2  1     0.0000000000e+00
 3  2  2     0.0000000000e+00
 3  2  3     1.6674892127e+00
 3  3  1    -1.9178821926e-01
 3  3  2    -6.9116532423e-01
 3  3  3     0.0000000000e+00

    8
0.0000000000e+00 0.0000000000e+00 0.0000000000e+00
-1.2242053135e+00 2.1203858019e+00 0.0000000000e+00
     1      1      2
 1  1  1     1.2662683564e-01
 1  1  2    -9.3738620154e-01
 1  1  3     0.0000000000e+00
 1  2  1    -4.8235405910e-01
 1  2  2     4.8655651261e-02
 1  2  3     0.0000000000e+00
 1  3  1     0.0000000000e+00
 1  3  2     0.0000000000e+00
 1  3  3    -1.6107261519e-01
 2  1  1    -4.8235405910e-01
 2  1  2     4.8655651261e-02
 2  1  3     0.0000000000e+00
 2  2  1     7.5801552208e-01
 2  2  2     1.1621218220e+00
 2  2  3     0.0000000000e+00
 2  3  1     0.0000000000e+00
 2  3  2     0.0000000000e+00
 2  3  3    -1.0545876745e-01
 3  1  1     0.0000000000e+00
 3  1  2     0.0000000000e+00
 3  1  3    -1.6107261519e-01
 3  2  1     0.0000000000e+00
 3  2  2     0.0000000000e+00
 3  2  3    -1.0545876745e-01
 3  3  1     1.3405146627e-01
 3  3  2    -1.5984123824e-01
 3  3  3     0.0000000000e+00

    9
0.0000000000e+00 0.0000000000e+00 0.0000000000e+00
1.2242053135e+00 2.1203858019e+00 0.0000000000e+00
     1      1      1
 1  1  1     2.7988257684e+00
 1  1  2    -1.3211080177e+00
 1  1  3     0.0000000000e+00
 1  2  1    -1.9506192580e+00
 1  2  2    -4.3663773623e+00
 1  2  3     0.0000000000e+00
 1  3  1     0.0000000000e+00
 1  3  2     0.0000000000e+00
 1  3  3     2.1033054823e+00
 2  1  1    -1.9506192580e+00
 2  1  2    -4.3663773623e+00
 2  1  3     0.0000000000e+00
 2  2  1    -6.7645490038e+00
 2  2  2    -6.3454342177e+00
 2  2  3     0.0000000000e+00
 2  3  1     0.0000000000e+00
 2  3  2     0.0000000000e+00
 2  3  3     1.6674892127e+00
 3  1  1     0.0000000000e+00
 3  1  2     0.0000000000e+00
 3  1  3     2.1033054823e+00
 3  2  1     0.0000000000e+00
 3  2  2     0.0000000000e+00
 3  2  3     1.6674892127e+00
 3  3  1     1.9178821926e-01
 3  3  2    -6.9116532423e-01
 3  3  3     0.0000000000e+00

   10
0.0000000000e+00 0.0000000000e+00 0.0000000000e+00
1.2242053135e+00 2.1203858019e+00 0.0000000000e+00
     1      1      2
 1  1  1    -1.2662683564e-01
 1  1  2    -9.3738620154e-01
 1  1  3     0.0000000000e+00
 1  2  1    -4.8235405910e-01
 1  2  2    -4.8655651261e-02
 1  2  3     0.0000000000e+00
 1  3  1     0.0000000000e+00
 1  3  2     0.0000000000e+00
 1  3  3     1.6107261519e-01
 2  1  1    -4.8235405910e-01
 2  1  2    -4.8655651261e-02
 2  1  3     0.0000000000e+00
 2  2  1    -7.5801552208e-01
 2  2  2     1.1621218220e+00
 2  2  3     0.0000000000e+00
 2  3  1     0.0000000000e+00
 2  3  2     0.0000000000e+00
 2  3  3    -1.0545876745e-01
 3  1  1     0.0000000000e+00
 3  1  2     0.0000000000e+00
 3  1  3     1.6107261519e-01
 3  2  1     0.0000000000e+00
 3  2  2     0.0000000000e+00
 3  2  3    -1.0545876745e-01
 3  3  1    -1.3405146627e-01
 3  3  2    -1.5984123824e-01
 3  3  3     0.0000000000e+00

   11
0.0000000000e+00 0.0000000000e+00 0.0000000000e+00
3.6726159405e+00 2.1203858019e+00 0.0000000000e+00
     1      1      1
 1  1  1     1.8673822479e-01
 1  1  2     3.4629997302e-01
 1  1  3     0.0000000000e+00
 1  2  1     5.7340037384e-01
 1  2  2     1.9336255248e-01
 1  2  3     0.0000000000e+00
 1  3  1     0.0000000000e+00
 1  3  2     0.0000000000e+00
 1  3  3    -9.5321799788e-02
 2  1  1     5.7340037384e-01
 2  1  2     1.9336255248e-01
 2  1  3     0.0000000000e+00
 2  2  1    -1.9998688016e-01
 2  2  2    -3.5394908777e-01
 2  2  3     0.0000000000e+00
 2  3  1     0.0000000000e+00
 2  3  2     0.0000000000e+00
 2  3  3    -5.5034066767e-02
 3  1  1     0.0000000000e+00
 3  1  2     0.0000000000e+00
 3  1  3    -9.5321799788e-02
 3  2  1     0.0000000000e+00
 3  2  2     0.0000000000e+00
 3  2  3    -5.5034066767e-02
 3  3  1    -2.9148414242e-02
 3  3  2    -1.6828844809e-02
 3  3  3     0.0000000000e+00

   12
0.0000000000e+00 0.0000000000e+00 0.0000000000e+00
-3.6726159405e+00 2.1203858019e+00 0.0000000000e+00
     1      1      1
 1  1  1    -1.8673822479e-01
 1  1  2     3.4629997302e-01
 1  1  3     0.0000000000e+00
 1  2  1     5.7340037384e-01
 1  2  2    -1.9336255248e-01
 1  2  3     0.0000000000e+00
 1  3  1     0.0000000000e+00
 1  3  2     0.0000000000e+00
 1  3  3     9.5321799788e-02
 2  1  1     5.7340037384e-01
 2  1  2    -1.9336255248e-01
 2  1  3     0.0000000000e+00
 2  2  1     1.9998688016e-01
 2  2  2    -3.5394908777e-01
 2  2  3     0.0000000000e+00
 2  3  1     0.0000000000e+00
 2  3  2     0.0000000000e+00
 2  3  3    -5.5034066767e-02
 3  1  1     0.0000000000e+00
 3  1  2     0.0000000000e+00
 3  1  3     9.5321799788e-02
 3  2  1     0.0000000000e+00
 3  2  2     0.0000000000e+00
 3  2  3    -5.5034066767e-02
 3  3  1     2.9148414242e-02
 3  3  2    -1.6828844809e-02
 3  3  3     0.0000000000e+00

   13
0.0000000000e+00 0.0000000000e+00 0.0000000000e+00
2.4484106270e+00 -4.2407716038e+00 0.0000000000e+00
     1      1      2
 1  1  1     6.7958067844e-01
 1  1  2    -1.8169542933e-01
 1  1  3     0.0000000000e+00
 1  2  1    -1.0235351691e+00
 1  2  2    -3.2432836804e-03
 1  2  3     0.0000000000e+00
 1  3  1     0.0000000000e+00
 1  3  2     0.0000000000e+00
 1  3  3    -1.7186627926e-01
 2  1  1    -1.0235351691e+00
 2  1  2    -3.2432836804e-03
 2  1  3     0.0000000000e+00
 2  2  1    -4.2632743163e-02
 2  2  2     8.3545037416e-01
 2  2  3     0.0000000000e+00
 2  3  1     0.0000000000e+00
 2  3  2     0.0000000000e+00
 2  3  3    -8.6763592883e-02
 3  1  1     0.0000000000e+00
 3  1  2     0.0000000000e+00
 3  1  3    -1.7186627926e-01
 3  2  1     0.0000000000e+00
 3  2  2     0.0000000000e+00
 3  2  3    -8.6763592883e-02
 3  3  1    -7.1400839758e-02
 3  3  2     1.9601259433e-01
 3  3  3     0.0000000000e+00

   14
0.0000000000e+00 0.0000000000e+00 0.0000000000e+00
0.0000000000e+00 4.2407716038e+00 0.0000000000e+00
     1      1      1
 1  1  1     0.0000000000e+00
 1  1  2     4.5916973683e-01
 1  1  3     0.0000000000e+00
 1  2  1    -4.7134687168e-02
 1  2  2     0.0000000000e+00
 1  2  3     0.0000000000e+00
 1  3  1     0.0000000000e+00
 1  3  2     0.0000000000e+00
 1  3  3     0.0000000000e+00
 2  1  1    -4.7134687168e-02
 2  1  2     0.0000000000e+00
 2  1  3     0.0000000000e+00
 2  2  1     0.0000000000e+00
 2  2  2    -7.6681041720e-01
 2  2  3     0.0000000000e+00
 2  3  1     0.0000000000e+00
 2  3  2     0.0000000000e+00
 2  3  3     5.6527547002e-02
 3  1  1     0.0000000000e+00
 3  1  2     0.0000000000e+00
 3  1  3     0.0000000000e+00
 3  2  1     0.0000000000e+00
 3  2  2     0.0000000000e+00
 3  2  3     5.6527547002e-02
 3  3  1     0.0000000000e+00
 3  3  2    -1.2664330648e-01
 3  3  3     0.0000000000e+00

   15
0.0000000000e+00 0.0000000000e+00 0.0000000000e+00
-2.4484106270e+00 -4.2407716038e+00 0.0000000000e+00
     1      1      2
 1  1  1    -6.7958067844e-01
 1  1  2    -1.8169542933e-01
 1  1  3     0.0000000000e+00
 1  2  1    -1.0235351691e+00
 1  2  2     3.2432836804e-03
 1  2  3     0.0000000000e+00
 1  3  1     0.0000000000e+00
 1  3  2     0.0000000000e+00
 1  3  3     1.7186627926e-01
 2  1  1    -1.0235351691e+00
 2  1  2     3.2432836804e-03
 2  1  3     0.0000000000e+00
 2  2  1     4.2632743163e-02
 2  2  2     8.3545037416e-01
 2  2  3     0.0000000000e+00
 2  3  1     0.0000000000e+00
 2  3  2     0.0000000000e+00
 2  3  3    -8.6763592883e-02
 3  1  1     0.0000000000e+00
 3  1  2     0.0000000000e+00
 3  1  3     1.7186627926e-01
 3  2  1     0.0000000000e+00
 3  2  2     0.0000000000e+00
 3  2  3    -8.6763592883e-02
 3  3  1     7.1400839758e-02
 3  3  2     1.9601259433e-01
 3  3  3     0.0000000000e+00

   16
0.0000000000e+00 0.0000000000e+00 0.0000000000e+00
0.0000000000e+00 -4.2407716038e+00 0.0000000000e+00
     1      1      1
 1  1  1     0.0000000000e+00
 1  1  2     6.9268741031e-01
 1  1  3     0.0000000000e+00
 1  2  1     2.3848660867e-01
 1  2  2     0.0000000000e+00
 1  2  3     0.0000000000e+00
 1  3  1     0.0000000000e+00
 1  3  2     0.0000000000e+00
 1  3  3     0.0000000000e+00
 2  1  1     2.3848660867e-01
 2  1  2     0.0000000000e+00
 2  1  3     0.0000000000e+00
 2  2  1     0.0000000000e+00
 2  2  2    -6.7738918082e-01
 2  2  3     0.0000000000e+00
 2  3  1     0.0000000000e+00
 2  3  2     0.0000000000e+00
 2  3  3     1.1006813353e-01
 3  1  1     0.0000000000e+00
 3  1  2     0.0000000000e+00
 3  1  3     0.0000000000e+00
 3  2  1     0.0000000000e+00
 3  2  2     0.0000000000e+00
 3  2  3     1.1006813353e-01
 3  3  1     0.0000000000e+00
 3  3  2     3.3657689619e-02
 3  3  3     0.0000000000e+00

   17
0.0000000000e+00 0.0000000000e+00 0.0000000000e+00
2.7755575616e-16 -4.2407716038e+00 0.0000000000e+00
     1      1      2
 1  1  1     0.0000000000e+00
 1  1  2    -1.8288543063e+00
 1  1  3     0.0000000000e+00
 1  2  1     2.5338726227e+00
 1  2  2     0.0000000000e+00
 1  2  3     0.0000000000e+00
 1  3  1     0.0000000000e+00
 1  3  2     0.0000000000e+00
 1  3  3     0.0000000000e+00
 2  1  1     2.5338726227e+00
 2  1  2     0.0000000000e+00
 2  1  3     0.0000000000e+00
 2  2  1     0.0000000000e+00
 2  2  2     2.6045275526e+00
 2  2  3     0.0000000000e+00
 2  3  1     0.0000000000e+00
 2  3  2     0.0000000000e+00
 2  3  3    -9.8831015984e-02
 3  1  1     0.0000000000e+00
 3  1  2     0.0000000000e+00
 3  1  3     0.0000000000e+00
 3  2  1     0.0000000000e+00
 3  2  2     0.0000000000e+00
 3  2  3    -9.8831015984e-02
 3  3  1     0.0000000000e+00
 3  3  2     8.5697918184e-02
 3  3  3     0.0000000000e+00

   18
0.0000000000e+00 0.0000000000e+00 0.0000000000e+00
1.2242053135e+00 -2.1203858019e+00 0.0000000000e+00
     1      1      1
 1  1  1     2.0948406274e-01
 1  1  2     2.9787549390e+00
 1  1  3     0.0000000000e+00
 1  2  1     1.2166329949e+00
 1  2  2    -6.6103013269e+00
 1  2  3     0.0000000000e+00
 1  3  1     0.0000000000e+00
 1  3  2     0.0000000000e+00
 1  3  3     3.9243527760e-01
 2  1  1     1.2166329949e+00
 2  1  2    -6.6103013269e+00
 2  1  3     0.0000000000e+00
 2  2  1    -4.8660427801e+00
 2  2  2     4.2889332450e+00
 2  2  3     0.0000000000e+00
 2  3  1     0.0000000000e+00
 2  3  2     0.0000000000e+00
 2  3  3    -2.6552605859e+00
 3  1  1     0.0000000000e+00
 3  1  2     0.0000000000e+00
 3  1  3     3.9243527760e-01
 3  2  1     0.0000000000e+00
 3  2  2     0.0000000000e+00
 3  2  3    -2.6552605859e+00
 3  3  1    -6.9446083863e-01
 3  3  2     1.7948919209e-01
 3  3  3     0.0000000000e+00

   19
0.0000000000e+00 0.0000000000e+00 0.0000000000e+00
1.2242053135e+00 -2.1203858019e+00 0.0000000000e+00
     1      1      2
 1  1  1    -1.2062461859e+02
 1  1  2     8.1606444579e+01
 1  1  3     0.0000000000e+00
 1  2  1     8.1004346821e+01
 1  2  2    -3.9860584894e+01
 1  2  3     0.0000000000e+00
 1  3  1     0.0000000000e+00
 1  3  2     0.0000000000e+00
 1  3  3     1.3669416203e+01
 2  1  1     8.1004346821e+01
 2  1  2    -3.9860584894e+01
 2  1  3     0.0000000000e+00
 2  2  1    -4.0903448802e+01
 2  2  2     1.1651828611e+01
 2  2  3     0.0000000000e+00
 2  3  1     0.0000000000e+00
 2  3  2     0.0000000000e+00
 2  3  3    -7.8920411247e+00
 3  1  1     0.0000000000e+00
 3  1  2     0.0000000000e+00
 3  1  3     1.3669416203e+01
 3  2  1     0.0000000000e+00
 3  2  2     0.0000000000e+00
 3  2  3    -7.8920411247e+00
 3  3  1     1.1720164842e+01
 3  3  2    -6.7666403266e+00
 3  3  3     0.0000000000e+00

   20
0.0000000000e+00 0.0000000000e+00 0.0000000000e+00
3.6726159405e+00 -2.1203858019e+00 0.0000000000e+00
     1      1      1
 1  1  1    -4.1905472994e-01
 1  1  2     1.9480667397e-01
 1  1  3     0.0000000000e+00
 1  2  1     4.4795888597e-01
 1  2  2    -2.8584240772e-01
 1  2  3     0.0000000000e+00
 1  3  1     0.0000000000e+00
 1  3  2     0.0000000000e+00
 1  3  3     4.8954291717e-02
 2  1  1     4.4795888597e-01
 2  1  2    -2.8584240772e-01
 2  1  3     0.0000000000e+00
 2  2  1     1.5263008551e-01
 2  2  2    -4.0986333785e-02
 2  2  3     0.0000000000e+00
 2  3  1     0.0000000000e+00
 2  3  2     0.0000000000e+00
 2  3  3    -2.8263773501e-02
 3  1  1     0.0000000000e+00
 3  1  2     0.0000000000e+00
 3  1  3     4.8954291717e-02
 3  2  1     0.0000000000e+00
 3  2  2     0.0000000000e+00
 3  2  3    -2.8263773501e-02
 3  3  1    -1.0967632063e-01
 3  3  2     6.3321653239e-02
 3  3  3     0.0000000000e+00

   21
0.0000000000e+00 0.0000000000e+00 0.0000000000e+00
3.6726159405e+00 -2.1203858019e+00 0.0000000000e+00
     1      1      2
 1  1  1     6.4288510793e-03
 1  1  2    -1.1790804754e+00
 1  1  3     0.0000000000e+00
 1  2  1    -7.9227287807e-01
 1  2  2     4.9462605678e-01
 1  2  3     0.0000000000e+00
 1  3  1     0.0000000000e+00
 1  3  2     0.0000000000e+00
 1  3  3    -1.0793664068e-02
 2  1  1    -7.9227287807e-01
 2  1  2     4.9462605678e-01
 2  1  3     0.0000000000e+00
 2  2  1    -2.5412327352e-01
 2  2  2     3.0058991015e-01
 2  2  3     0.0000000000e+00
 2  3  1     0.0000000000e+00
 2  3  2     0.0000000000e+00
 2  3  3     1.9222236033e-01
 3  1  1     0.0000000000e+00
 3  1  2     0.0000000000e+00
 3  1  3    -1.0793664068e-02
 3  2  1     0.0000000000e+00
 3  2  2     0.0000000000e+00
 3  2  3     1.9222236033e-01
 3  3  1    -2.0545230603e-01
 3  3  2    -3.6171356082e-02
 3  3  3     0.0000000000e+00

   22
0.0000000000e+00 0.0000000000e+00 0.0000000000e+00
-3.6726159405e+00 -2.1203858019e+00 0.0000000000e+00
     1      1      1
 1  1  1     4.1905472994e-01
 1  1  2     1.9480667397e-01
 1  1  3     0.0000000000e+00
 1  2  1     4.4795888597e-01
 1  2  2     2.8584240772e-01
 1  2  3     0.0000000000e+00
 1  3  1     0.0000000000e+00
 1  3  2     0.0000000000e+00
 1  3  3    -4.8954291717e-02
 2  1  1     4.4795888597e-01
 2  1  2     2.8584240772e-01
 2  1  3     0.0000000000e+00
 2  2  1    -1.5263008551e-01
 2  2  2    -4.0986333785e-02
 2  2  3     0.0000000000e+00
 2  3  1     0.0000000000e+00
 2  3  2     0.0000000000e+00
 2  3  3    -2.8263773501e-02
 3  1  1     0.0000000000e+00
 3  1  2     0.0000000000e+00
 3  1  3    -4.8954291717e-02
 3  2  1     0.0000000000e+00
 3  2  2     0.0000000000e+00
 3  2  3    -2.8263773501e-02
 3  3  1     1.0967632063e-01
 3  3  2     6.3321653239e-02
 3  3  3     0.0000000000e+00

   23
0.0000000000e+00 0.0000000000e+00 0.0000000000e+00
-3.6726159405e+00 -2.1203858019e+00 0.0000000000e+00
     1      1      2
 1  1  1    -6.4288510793e-03
 1  1  2    -1.1790804754e+00
 1  1  3     0.0000000000e+00
 1  2  1    -7.9227287807e-01
 1  2  2    -4.9462605678e-01
 1  2  3     0.0000000000e+00
 1  3  1     0.0000000000e+00
 1  3  2     0.0000000000e+00
 1  3  3     1.0793664068e-02
 2  1  1    -7.9227287807e-01
 2  1  2    -4.9462605678e-01
 2  1  3     0.0000000000e+00
 2  2  1     2.5412327352e-01
 2  2  2     3.0058991015e-01
 2  2  3     0.0000000000e+00
 2  3  1     0.0000000000e+00
 2  3  2     0.0000000000e+00
 2  3  3     1.9222236033e-01
 3  1  1     0.0000000000e+00
 3  1  2     0.0000000000e+00
 3  1  3     1.0793664068e-02
 3  2  1     0.0000000000e+00
 3  2  2     0.0000000000e+00
 3  2  3     1.9222236033e-01
 3  3  1     2.0545230603e-01
 3  3  2    -3.6171356082e-02
 3  3  3     0.0000000000e+00

   24
0.0000000000e+00 0.0000000000e+00 0.0000000000e+00
-1.2242053135e+00 -2.1203858019e+00 0.0000000000e+00
     1      1      1
 1  1  1    -2.0948406274e-01
 1  1  2     2.9787549390e+00
 1  1  3     0.0000000000e+00
 1  2  1     1.2166329949e+00
 1  2  2     6.6103013269e+00
 1  2  3     0.0000000000e+00
 1  3  1     0.0000000000e+00
 1  3  2     0.0000000000e+00
 1  3  3    -3.9243527760e-01
 2  1  1     1.2166329949e+00
 2  1  2     6.6103013269e+00
 2  1  3     0.0000000000e+00
 2  2  1     4.8660427801e+00
 2  2  2     4.2889332450e+00
 2  2  3     0.0000000000e+00
 2  3  1     0.0000000000e+00
 2  3  2     0.0000000000e+00
 2  3  3    -2.6552605859e+00
 3  1  1     0.0000000000e+00
 3  1  2     0.0000000000e+00
 3  1  3    -3.9243527760e-01
 3  2  1     0.0000000000e+00
 3  2  2     0.0000000000e+00
 3  2  3    -2.6552605859e+00
 3  3  1     6.9446083863e-01
 3  3  2     1.7948919209e-01
 3  3  3     0.0000000000e+00

   25
0.0000000000e+00 0.0000000000e+00 0.0000000000e+00
-1.2242053135e+00 -2.1203858019e+00 0.0000000000e+00
     1      1      2
 1  1  1     1.2062461859e+02
 1  1  2     8.1606444579e+01
 1  1  3     0.0000000000e+00
 1  2  1     8.1004346821e+01
 1  2  2     3.9860584894e+01
 1  2  3     0.0000000000e+00
 1  3  1     0.0000000000e+00
 1  3  2     0.0000000000e+00
 1  3  3    -1.3669416203e+01
 2  1  1     8.1004346821e+01
 2  1  2     3.9860584894e+01
 2  1  3     0.0000000000e+00
 2  2  1     4.0903448802e+01
 2  2  2     1.1651828611e+01
 2  2  3     0.0000000000e+00
 2  3  1     0.0000000000e+00
 2  3  2     0.0000000000e+00
 2  3  3    -7.8920411247e+00
 3  1  1     0.0000000000e+00
 3  1  2     0.0000000000e+00
 3  1  3    -1.3669416203e+01
 3  2  1     0.0000000000e+00
 3  2  2     0.0000000000e+00
 3  2  3    -7.8920411247e+00
 3  3  1    -1.1720164842e+01
 3  3  2    -6.7666403266e+00
 3  3  3     0.0000000000e+00

   26
0.0000000000e+00 0.0000000000e+00 0.0000000000e+00
0.0000000000e+00 0.0000000000e+00 0.0000000000e+00
     1      2      1
 1  1  1     0.0000000000e+00
 1  1  2     1.1963788565e+01
 1  1  3     0.0000000000e+00
 1  2  1     1.0759593049e+01
 1  2  2     0.0000000000e+00
 1  2  3     0.0000000000e+00
 1  3  1     0.0000000000e+00
 1  3  2     0.0000000000e+00
 1  3  3     0.0000000000e+00
 2  1  1     1.1963788565e+01
 2  1  2     0.0000000000e+00
 2  1  3     0.0000000000e+00
 2  2  1     0.0000000000e+00
 2  2  2    -1.9727613943e+02
 2  2  3     0.0000000000e+00
 2  3  1     0.0000000000e+00
 2  3  2     0.0000000000e+00
 2  3  3     1.5784082249e+01
 3  1  1     0.0000000000e+00
 3  1  2     0.0000000000e+00
 3  1  3     0.0000000000e+00
 3  2  1     0.0000000000e+00
 3  2  2     0.0000000000e+00
 3  2  3     1.3533280653e+01
 3  3  1     0.0000000000e+00
 3  3  2     1.5784082249e+01
 3  3  3     0.0000000000e+00

   27
0.0000000000e+00 0.0000000000e+00 0.0000000000e+00
0.0000000000e+00 0.0000000000e+00 0.0000000000e+00
     1      2      2
 1  1  1     0.0000000000e+00
 1  1  2    -1.1963788565e+01
 1  1  3     0.0000000000e+00
 1  2  1    -1.1963788565e+01
 1  2  2     0.0000000000e+00
 1  2  3     0.0000000000e+00
 1  3  1     0.0000000000e+00
 1  3  2     0.0000000000e+00
 1  3  3     0.0000000000e+00
 2  1  1    -1.0759593049e+01
 2  1  2     0.0000000000e+00
 2  1  3     0.0000000000e+00
 2  2  1     0.0000000000e+00
 2  2  2     1.9727613943e+02
 2  2  3     0.0000000000e+00
 2  3  1     0.0000000000e+00
 2  3  2     0.0000000000e+00
 2  3  3    -1.3533280653e+01
 3  1  1     0.0000000000e+00
 3  1  2     0.0000000000e+00
 3  1  3     0.0000000000e+00
 3  2  1     0.0000000000e+00
 3  2  2     0.0000000000e+00
 3  2  3    -1.5784082249e+01
 3  3  1     0.0000000000e+00
 3  3  2    -1.5784082249e+01
 3  3  3     0.0000000000e+00

   28
0.0000000000e+00 0.0000000000e+00 0.0000000000e+00
2.4484106270e+00 0.0000000000e+00 0.0000000000e+00
     1      2      1
 1  1  1     1.2585550466e+00
 1  1  2     4.3244386039e-01
 1  1  3     0.0000000000e+00
 1  2  1    -1.5776951566e+00
 1  2  2    -1.4742264637e+00
 1  2  3     0.0000000000e+00
 1  3  1     0.0000000000e+00
 1  3  2     0.0000000000e+00
 1  3  3    -7.9374666068e-01
 2  1  1     4.9536077478e-01
 2  1  2     3.7777735376e-01
 2  1  3     0.0000000000e+00
 2  2  1    -1.5928801575e+00
 2  2  2    -1.2460824786e+00
 2  2  3     0.0000000000e+00
 2  3  1     0.0000000000e+00
 2  3  2     0.0000000000e+00
 2  3  3    -6.4252390338e-03
 3  1  1     0.0000000000e+00
 3  1  2     0.0000000000e+00
 3  1  3     1.2720868478e-01
 3  2  1     0.0000000000e+00
 3  2  2     0.0000000000e+00
 3  2  3    -4.1837146057e-01
 3  3  1     6.3996554005e-01
 3  3  2     7.8171440003e-01
 3  3  3     0.0000000000e+00

   29
0.0000000000e+00 0.0000000000e+00 0.0000000000e+00
2.4484106270e+00 0.0000000000e+00 0.0000000000e+00
     1      2      2
 1  1  1     1.2585550466e+00
 1  1  2    -4.3244386039e-01
 1  1  3     0.0000000000e+00
 1  2  1    -4.9536077478e-01
 1  2  2     3.7777735376e-01
 1  2  3     0.0000000000e+00
 1  3  1     0.0000000000e+00
 1  3  2     0.0000000000e+00
 1  3  3     1.2720868478e-01
 2  1  1     1.5776951566e+00
 2  1  2    -1.4742264637e+00
 2  1  3     0.0000000000e+00
 2  2  1    -1.5928801575e+00
 2  2  2     1.2460824786e+00
 2  2  3     0.0000000000e+00
 2  3  1     0.0000000000e+00
 2  3  2     0.0000000000e+00
 2  3  3     4.1837146057e-01
 3  1  1     0.0000000000e+00
 3  1  2     0.0000000000e+00
 3  1  3    -7.9374666068e-01
 3  2  1     0.0000000000e+00
 3  2  2     0.0000000000e+00
 3  2  3     6.4252390338e-03
 3  3  1     6.3996554005e-01
 3  3  2    -7.8171440003e-01
 3  3  3     0.0000000000e+00

   30
0.0000000000e+00 0.0000000000e+00 0.0000000000e+00
-2.4484106270e+00 0.0000000000e+00 0.0000000000e+00
     1      2      1
 1  1  1    -1.2585550466e+00
 1  1  2     4.3244386039e-01
 1  1  3     0.0000000000e+00
 1  2  1    -1.5776951566e+00
 1  2  2     1.4742264637e+00
 1  2  3     0.0000000000e+00
 1  3  1     0.0000000000e+00
 1  3  2     0.0000000000e+00
 1  3  3     7.9374666068e-01
 2  1  1     4.9536077478e-01
 2  1  2    -3.7777735376e-01
 2  1  3     0.0000000000e+00
 2  2  1     1.5928801575e+00
 2  2  2    -1.2460824786e+00
 2  2  3     0.0000000000e+00
 2  3  1     0.0000000000e+00
 2  3  2     0.0000000000e+00
 2  3  3    -6.4252390338e-03
 3  1  1     0.0000000000e+00
 3  1  2     0.0000000000e+00
 3  1  3    -1.2720868478e-01
 3  2  1     0.0000000000e+00
 3  2  2     0.0000000000e+00
 3  2  3    -4.1837146057e-01
 3  3  1    -6.3996554005e-01
 3  3  2     7.8171440003e-01
 3  3  3     0.0000000000e+00

   31
0.0000000000e+00 0.0000000000e+00 0.0000000000e+00
-2.4484106270e+00 0.0000000000e+00 0.0000000000e+00
     1      2      2
 1  1  1    -1.2585550466e+00
 1  1  2    -4.3244386039e-01
 1  1  3     0.0000000000e+00
 1  2  1    -4.9536077478e-01
 1  2  2    -3.7777735376e-01
 1  2  3     0.0000000000e+00
 1  3  1     0.0000000000e+00
 1  3  2     0.0000000000e+00
 1  3  3    -1.2720868478e-01
 2  1  1     1.5776951566e+00
 2  1  2     1.4742264637e+00
 2  1  3     0.0000000000e+00
 2  2  1     1.5928801575e+00
 2  2  2     1.2460824786e+00
 2  2  3     0.0000000000e+00
 2  3  1     0.0000000000e+00
 2  3  2     0.0000000000e+00
 2  3  3     4.1837146057e-01
 3  1  1     0.0000000000e+00
 3  1  2     0.0000000000e+00
 3  1  3     7.9374666068e-01
 3  2  1     0.0000000000e+00
 3  2  2     0.0000000000e+00
 3  2  3     6.4252390338e-03
 3  3  1    -6.3996554005e-01
 3  3  2    -7.8171440003e-01
 3  3  3     0.0000000000e+00

   32
0.0000000000e+00 0.0000000000e+00 0.0000000000e+00
-1.2242053135e+00 2.1203858019e+00 0.0000000000e+00
     1      2      1
 1  1  1     1.4545174030e-02
 1  1  2     1.0150959003e+00
 1  1  3     0.0000000000e+00
 1  2  1    -9.4090424089e-02
 1  2  2     6.4523741432e-01
 1  2  3     0.0000000000e+00
 1  3  1     0.0000000000e+00
 1  3  2     0.0000000000e+00
 1  3  3     1.9061757923e+00
 2  1  1    -3.2361816995e+00
 2  1  2     1.1785466120e+00
 2  1  3     0.0000000000e+00
 2  2  1    -1.8092388523e+00
 2  2  2     7.8292228794e-01
 2  2  3     0.0000000000e+00
 2  3  1     0.0000000000e+00
 2  3  2     0.0000000000e+00
 2  3  3    -8.3206056609e-01
 3  1  1     0.0000000000e+00
 3  1  2     0.0000000000e+00
 3  1  3    -2.5581744476e-02
 3  2  1     0.0000000000e+00
 3  2  2     0.0000000000e+00