  350

    1
0.0000000000e+00 0.0000000000e+00 0.0000000000e+00
0.0000000000e+00 0.0000000000e+00 0.0000000000e+00
     1      1      1
 1  1  1     0.0000000000e+00
 1  1  2     0.0000000000e+00
 1  1  3     0.0000000000e+00
 1  2  1     0.0000000000e+00
 1  2  2     0.0000000000e+00
 1  2  3     0.0000000000e+00
 1  3  1     0.0000000000e+00
 1  3  2     0.0000000000e+00
 1  3  3     0.0000000000e+00
 2  1  1     0.0000000000e+00
 2  1  2     0.0000000000e+00
 2  1  3     0.0000000000e+00
 2  2  1     0.0000000000e+00
 2  2  2     0.0000000000e+00
 2  2  3     0.0000000000e+00
 2  3  1     0.0000000000e+00
 2  3  2     0.0000000000e+00
 2  3  3     0.0000000000e+00
 3  1  1     0.0000000000e+00
 3  1  2     0.0000000000e+00
 3  1  3     0.0000000000e+00
 3  2  1     0.0000000000e+00
 3  2  2     0.0000000000e+00
 3  2  3     0.0000000000e+00
 3  3  1     0.0000000000e+00
 3  3  2     0.0000000000e+00
 3  3  3     0.0000000000e+00

    2
0.0000000000e+00 0.0000000000e+00 0.0000000000e+00
-1.9900370488e+00 0.0000000000e+00 1.9900370488e+00
     1      1      1
 1  1  1     3.2010235608e-01
 1  1  2     0.0000000000e+00
 1  1  3    -4.1369969805e-01
 1  2  1     0.0000000000e+00
 1  2  2    -1.6084275607e-01
 1  2  3     0.0000000000e+00
 1  3  1    -5.8672699503e-01
 1  3  2     0.0000000000e+00
 1  3  3     5.8672699503e-01
 2  1  1     0.0000000000e+00
 2  1  2    -1.6084275607e-01
 2  1  3     0.0000000000e+00
 2  2  1    -1.7149648503e-01
 2  2  2     0.0000000000e+00
 2  2  3     1.7149648503e-01
 2  3  1     0.0000000000e+00
 2  3  2     1.6084275607e-01
 2  3  3     0.0000000000e+00
 3  1  1    -5.8672699503e-01
 3  1  2     0.0000000000e+00
 3  1  3     5.8672699503e-01
 3  2  1     0.0000000000e+00
 3  2  2     1.6084275607e-01
 3  2  3     0.0000000000e+00
 3  3  1     4.1369969805e-01
 3  3  2     0.0000000000e+00
 3  3  3    -3.2010235608e-01

    3
0.0000000000e+00 0.0000000000e+00 0.0000000000e+00
1.9900370488e+00 0.0000000000e+00 -1.9900370488e+00
     1      1      1
 1  1  1    -3.2010235608e-01
 1  1  2     0.0000000000e+00
 1  1  3     4.1369969805e-01
 1  2  1     0.0000000000e+00
 1  2  2     1.6084275607e-01
 1  2  3     0.0000000000e+00
 1  3  1     5.8672699503e-01
 1  3  2     0.0000000000e+00
 1  3  3    -5.8672699503e-01
 2  1  1     0.0000000000e+00
 2  1  2     1.6084275607e-01
 2  1  3     0.0000000000e+00
 2  2  1     1.7149648503e-01
 2  2  2     0.0000000000e+00
 2  2  3    -1.7149648503e-01
 2  3  1     0.0000000000e+00
 2  3  2    -1.6084275607e-01
 2  3  3     0.0000000000e+00
 3  1  1     5.8672699503e-01
 3  1  2     0.0000000000e+00
 3  1  3    -5.8672699503e-01
 3  2  1     0.0000000000e+00
 3  2  2    -1.6084275607e-01
 3  2  3     0.0000000000e+00
 3  3  1    -4.1369969805e-01
 3  3  2     0.0000000000e+00
 3  3  3     3.2010235608e-01

    4
0.0000000000e+00 0.0000000000e+00 0.0000000000e+00
1.9900370488e+00 0.0000000000e+00 -1.9900370488e+00
     1      1      2
 1  1  1     0.0000000000e+00
 1  1  2     3.5815816592e-01
 1  1  3     0.0000000000e+00
 1  2  1    -1.7422932007e-01
 1  2  2     0.0000000000e+00
 1  2  3     0.0000000000e+00
 1  3  1     0.0000000000e+00
 1  3  2     0.0000000000e+00
 1  3  3     0.0000000000e+00
 2  1  1    -1.7422932007e-01
 2  1  2     0.0000000000e+00
 2  1  3     0.0000000000e+00
 2  2  1     0.0000000000e+00
 2  2  2    -4.4982040879e+00
 2  2  3     0.0000000000e+00
 2  3  1     0.0000000000e+00
 2  3  2     0.0000000000e+00
 2  3  3    -1.7422932007e-01
 3  1  1     0.0000000000e+00
 3  1  2     0.0000000000e+00
 3  1  3     0.0000000000e+00
 3  2  1     0.0000000000e+00
 3  2  2     0.0000000000e+00
 3  2  3    -1.7422932007e-01
 3  3  1     0.0000000000e+00
 3  3  2     3.5815816592e-01
 3  3  3     0.0000000000e+00

    5
0.0000000000e+00 0.0000000000e+00 0.0000000000e+00
0.0000000000e+00 1.9900370488e+00 1.9900370488e+00
     1      1      1
 1  1  1     0.0000000000e+00
 1  1  2     1.7149648503e-01
 1  1  3     1.7149648503e-01
 1  2  1     1.6084275607e-01
 1  2  2     0.0000000000e+00
 1  2  3     0.0000000000e+00
 1  3  1     1.6084275607e-01
 1  3  2     0.0000000000e+00
 1  3  3     0.0000000000e+00
 2  1  1     1.6084275607e-01
 2  1  2     0.0000000000e+00
 2  1  3     0.0000000000e+00
 2  2  1     0.0000000000e+00
 2  2  2    -3.2010235608e-01
 2  2  3    -4.1369969805e-01
 2  3  1     0.0000000000e+00
 2  3  2    -5.8672699503e-01
 2  3  3    -5.8672699503e-01
 3  1  1     1.6084275607e-01
 3  1  2     0.0000000000e+00
 3  1  3     0.0000000000e+00
 3  2  1     0.0000000000e+00
 3  2  2    -5.8672699503e-01
 3  2  3    -5.8672699503e-01
 3  3  1     0.0000000000e+00
 3  3  2    -4.1369969805e-01
 3  3  3    -3.2010235608e-01

    6
0.0000000000e+00 0.0000000000e+00 0.0000000000e+00
1.9900370488e+00 1.9900370488e+00 -2.9550641834e-16
     1      1      1
 1  1  1    -3.2010235608e-01
 1  1  2    -4.1369969805e-01
 1  1  3     0.0000000000e+00
 1  2  1    -5.8672699503e-01
 1  2  2    -5.8672699503e-01
 1  2  3     0.0000000000e+00
 1  3  1     0.0000000000e+00
 1  3  2     0.0000000000e+00
 1  3  3     1.6084275607e-01
 2  1  1    -5.8672699503e-01
 2  1  2    -5.8672699503e-01
 2  1  3     0.0000000000e+00
 2  2  1    -4.1369969805e-01
 2  2  2    -3.2010235608e-01
 2  2  3     0.0000000000e+00
 2  3  1     0.0000000000e+00
 2  3  2     0.0000000000e+00
 2  3  3     1.6084275607e-01
 3  1  1     0.0000000000e+00
 3  1  2     0.0000000000e+00
 3  1  3     1.6084275607e-01
 3  2  1     0.0000000000e+00
 3  2  2     0.0000000000e+00
 3  2  3     1.6084275607e-01
 3  3  1     1.7149648503e-01
 3  3  2     1.7149648503e-01
 3  3  3     0.0000000000e+00

    7
0.0000000000e+00 0.0000000000e+00 0.0000000000e+00
0.0000000000e+00 -1.9900370488e+00 -1.9900370488e+00
     1      1      1
 1  1  1     0.0000000000e+00
 1  1  2    -1.7149648503e-01
 1  1  3    -1.7149648503e-01
 1  2  1    -1.6084275607e-01
 1  2  2     0.0000000000e+00
 1  2  3     0.0000000000e+00
 1  3  1    -1.6084275607e-01
 1  3  2     0.0000000000e+00
 1  3  3     0.0000000000e+00
 2  1  1    -1.6084275607e-01
 2  1  2     0.0000000000e+00
 2  1  3     0.0000000000e+00
 2  2  1     0.0000000000e+00
 2  2  2     3.2010235608e-01
 2  2  3     4.1369969805e-01
 2  3  1     0.0000000000e+00
 2  3  2     5.8672699503e-01
 2  3  3     5.8672699503e-01
 3  1  1    -1.6084275607e-01
 3  1  2     0.0000000000e+00
 3  1  3     0.0000000000e+00
 3  2  1     0.0000000000e+00
 3  2  2     5.8672699503e-01
 3  2  3     5.8672699503e-01
 3  3  1     0.0000000000e+00
 3  3  2     4.1369969805e-01
 3  3  3     3.2010235608e-01

    8
0.0000000000e+00 0.0000000000e+00 0.0000000000e+00
0.0000000000e+00 -1.9900370488e+00 -1.9900370488e+00
     1      1      2
 1  1  1     4.4982040879e+00
 1  1  2     0.0000000000e+00
 1  1  3     0.0000000000e+00
 1  2  1     0.0000000000e+00
 1  2  2     1.7422932007e-01
 1  2  3     0.0000000000e+00
 1  3  1     0.0000000000e+00
 1  3  2     0.0000000000e+00
 1  3  3     1.7422932007e-01
 2  1  1     0.0000000000e+00
 2  1  2     1.7422932007e-01
 2  1  3     0.0000000000e+00
 2  2  1    -3.5815816592e-01
 2  2  2     0.0000000000e+00
 2  2  3     0.0000000000e+00
 2  3  1     0.0000000000e+00
 2  3  2     0.0000000000e+00
 2  3  3     0.0000000000e+00
 3  1  1     0.0000000000e+00
 3  1  2     0.0000000000e+00
 3  1  3     1.7422932007e-01
 3  2  1     0.0000000000e+00
 3  2  2     0.0000000000e+00
 3  2  3     0.0000000000e+00
 3  3  1    -3.5815816592e-01
 3  3  2     0.0000000000e+00
 3  3  3     0.0000000000e+00

    9
0.0000000000e+00 0.0000000000e+00 0.0000000000e+00
-1.9900370488e+00 -1.9900370488e+00 -3.1345708053e-16
     1      1      1
 1  1  1     3.2010235608e-01
 1  1  2     4.1369969805e-01
 1  1  3     0.0000000000e+00
 1  2  1     5.8672699503e-01
 1  2  2     5.8672699503e-01
 1  2  3     0.0000000000e+00
 1  3  1     0.0000000000e+00
 1  3  2     0.0000000000e+00
 1  3  3    -1.6084275607e-01
 2  1  1     5.8672699503e-01
 2  1  2     5.8672699503e-01
 2  1  3     0.0000000000e+00
 2  2  1     4.1369969805e-01
 2  2  2     3.2010235608e-01
 2  2  3     0.0000000000e+00
 2  3  1     0.0000000000e+00
 2  3  2     0.0000000000e+00
 2  3  3    -1.6084275607e-01
 3  1  1     0.0000000000e+00
 3  1  2     0.0000000000e+00
 3  1  3    -1.6084275607e-01
 3  2  1     0.0000000000e+00
 3  2  2     0.0000000000e+00
 3  2  3    -1.6084275607e-01
 3  3  1    -1.7149648503e-01
 3  3  2    -1.7149648503e-01
 3  3  3     0.0000000000e+00

   10
0.0000000000e+00 0.0000000000e+00 0.0000000000e+00
1.9900370488e+00 -1.9900370488e+00 -3.9800740976e+00
     1      1      2
 1  1  1     0.0000000000e+00
 1  1  2     0.0000000000e+00
 1  1  3    -3.5815816592e-01
 1  2  1     0.0000000000e+00
 1  2  2     0.0000000000e+00
 1  2  3     0.0000000000e+00
 1  3  1     1.7422932007e-01
 1  3  2     0.0000000000e+00
 1  3  3     0.0000000000e+00
 2  1  1     0.0000000000e+00
 2  1  2     0.0000000000e+00
 2  1  3     0.0000000000e+00
 2  2  1     0.0000000000e+00
 2  2  2     0.0000000000e+00
 2  2  3    -3.5815816592e-01
 2  3  1     0.0000000000e+00
 2  3  2     1.7422932007e-01
 2  3  3     0.0000000000e+00
 3  1  1     1.7422932007e-01
 3  1  2     0.0000000000e+00
 3  1  3     0.0000000000e+00
 3  2  1     0.0000000000e+00
 3  2  2     1.7422932007e-01
 3  2  3     0.0000000000e+00
 3  3  1     0.0000000000e+00
 3  3  2     0.0000000000e+00
 3  3  3     4.4982040879e+00

   11
0.0000000000e+00 0.0000000000e+00 0.0000000000e+00
-1.9900370488e+00 1.9900370488e+00 0.0000000000e+00
     1      1      1
 1  1  1     3.2010235608e-01
 1  1  2    -4.1369969805e-01
 1  1  3     0.0000000000e+00
 1  2  1    -5.8672699503e-01
 1  2  2     5.8672699503e-01
 1  2  3     0.0000000000e+00
 1  3  1     0.0000000000e+00
 1  3  2     0.0000000000e+00
 1  3  3    -1.6084275607e-01
 2  1  1    -5.8672699503e-01
 2  1  2     5.8672699503e-01
 2  1  3     0.0000000000e+00
 2  2  1     4.1369969805e-01
 2  2  2    -3.2010235608e-01
 2  2  3     0.0000000000e+00
 2  3  1     0.0000000000e+00
 2  3  2     0.0000000000e+00
 2  3  3     1.6084275607e-01
 3  1  1     0.0000000000e+00
 3  1  2     0.0000000000e+00
 3  1  3    -1.6084275607e-01
 3  2  1     0.0000000000e+00
 3  2  2     0.0000000000e+00
 3  2  3     1.6084275607e-01
 3  3  1    -1.7149648503e-01
 3  3  2     1.7149648503e-01
 3  3  3     0.0000000000e+00

   12
0.0000000000e+00 0.0000000000e+00 0.0000000000e+00
2.9550641834e-16 1.9900370488e+00 -1.9900370488e+00
     1      1      1
 1  1  1     0.0000000000e+00
 1  1  2     1.7149648503e-01
 1  1  3    -1.7149648503e-01
 1  2  1     1.6084275607e-01
 1  2  2     0.0000000000e+00
 1  2  3     0.0000000000e+00
 1  3  1    -1.6084275607e-01
 1  3  2     0.0000000000e+00
 1  3  3     0.0000000000e+00
 2  1  1     1.6084275607e-01
 2  1  2     0.0000000000e+00
 2  1  3     0.0000000000e+00
 2  2  1     0.0000000000e+00
 2  2  2    -3.2010235608e-01
 2  2  3     4.1369969805e-01
 2  3  1     0.0000000000e+00
 2  3  2     5.8672699503e-01
 2  3  3    -5.8672699503e-01
 3  1  1    -1.6084275607e-01
 3  1  2     0.0000000000e+00
 3  1  3     0.0000000000e+00
 3  2  1     0.0000000000e+00
 3  2  2     5.8672699503e-01
 3  2  3    -5.8672699503e-01
 3  3  1     0.0000000000e+00
 3  3  2    -4.1369969805e-01
 3  3  3     3.2010235608e-01

   13
0.0000000000e+00 0.0000000000e+00 0.0000000000e+00
-1.9900370488e+00 -2.9550641834e-16 -1.9900370488e+00
     1      1      1
 1  1  1     3.2010235608e-01
 1  1  2     0.0000000000e+00
 1  1  3     4.1369969805e-01
 1  2  1     0.0000000000e+00
 1  2  2    -1.6084275607e-01
 1  2  3     0.0000000000e+00
 1  3  1     5.8672699503e-01
 1  3  2     0.0000000000e+00
 1  3  3     5.8672699503e-01
 2  1  1     0.0000000000e+00
 2  1  2    -1.6084275607e-01
 2  1  3     0.0000000000e+00
 2  2  1    -1.7149648503e-01
 2  2  2     0.0000000000e+00
 2  2  3    -1.7149648503e-01
 2  3  1     0.0000000000e+00
 2  3  2    -1.6084275607e-01
 2  3  3     0.0000000000e+00
 3  1  1     5.8672699503e-01
 3  1  2     0.0000000000e+00
 3  1  3     5.8672699503e-01
 3  2  1     0.0000000000e+00
 3  2  2    -1.6084275607e-01
 3  2  3     0.0000000000e+00
 3  3  1     4.1369969805e-01
 3  3  2     0.0000000000e+00
 3  3  3     3.2010235608e-01

   14
0.0000000000e+00 0.0000000000e+00 0.0000000000e+00
1.9900370488e+00 -1.9900370488e+00 0.0000000000e+00
     1      1      1
 1  1  1    -3.2010235608e-01
 1  1  2     4.1369969805e-01
 1  1  3     0.0000000000e+00
 1  2  1     5.8672699503e-01
 1  2  2    -5.8672699503e-01
 1  2  3     0.0000000000e+00
 1  3  1     0.0000000000e+00
 1  3  2     0.0000000000e+00
 1  3  3     1.6084275607e-01
 2  1  1     5.8672699503e-01
 2  1  2    -5.8672699503e-01
 2  1  3     0.0000000000e+00
 2  2  1    -4.1369969805e-01
 2  2  2     3.2010235608e-01
 2  2  3     0.0000000000e+00
 2  3  1     0.0000000000e+00
 2  3  2     0.0000000000e+00
 2  3  3    -1.6084275607e-01
 3  1  1     0.0000000000e+00
 3  1  2     0.0000000000e+00
 3  1  3     1.6084275607e-01
 3  2  1     0.0000000000e+00
 3  2  2     0.0000000000e+00
 3  2  3    -1.6084275607e-01
 3  3  1     1.7149648503e-01
 3  3  2    -1.7149648503e-01
 3  3  3     0.0000000000e+00

   15
0.0000000000e+00 0.0000000000e+00 0.0000000000e+00
1.9900370488e+00 -1.9900370488e+00 0.0000000000e+00
     1      1      2
 1  1  1     0.0000000000e+00
 1  1  2     0.0000000000e+00
 1  1  3     3.5815816592e-01
 1  2  1     0.0000000000e+00
 1  2  2     0.0000000000e+00
 1  2  3     0.0000000000e+00
 1  3  1    -1.7422932007e-01
 1  3  2     0.0000000000e+00
 1  3  3     0.0000000000e+00
 2  1  1     0.0000000000e+00
 2  1  2     0.0000000000e+00
 2  1  3     0.0000000000e+00
 2  2  1     0.0000000000e+00
 2  2  2     0.0000000000e+00
 2  2  3     3.5815816592e-01
 2  3  1     0.0000000000e+00
 2  3  2    -1.7422932007e-01
 2  3  3     0.0000000000e+00
 3  1  1    -1.7422932007e-01
 3  1  2     0.0000000000e+00
 3  1  3     0.0000000000e+00
 3  2  1     0.0000000000e+00
 3  2  2    -1.7422932007e-01
 3  2  3     0.0000000000e+00
 3  3  1     0.0000000000e+00
 3  3  2     0.0000000000e+00
 3  3  3    -4.4982040879e+00

   16
0.0000000000e+00 0.0000000000e+00 0.0000000000e+00
3.1345708053e-16 -1.9900370488e+00 1.9900370488e+00
     1      1      1
 1  1  1     0.0000000000e+00
 1  1  2    -1.7149648503e-01
 1  1  3     1.7149648503e-01
 1  2  1    -1.6084275607e-01
 1  2  2     0.0000000000e+00
 1  2  3     0.0000000000e+00
 1  3  1     1.6084275607e-01
 1  3  2     0.0000000000e+00
 1  3  3     0.0000000000e+00
 2  1  1    -1.6084275607e-01
 2  1  2     0.0000000000e+00
 2  1  3     0.0000000000e+00
 2  2  1     0.0000000000e+00
 2  2  2     3.2010235608e-01
 2  2  3    -4.1369969805e-01
 2  3  1     0.0000000000e+00
 2  3  2    -5.8672699503e-01
 2  3  3     5.8672699503e-01
 3  1  1     1.6084275607e-01
 3  1  2     0.0000000000e+00
 3  1  3     0.0000000000e+00
 3  2  1     0.0000000000e+00
 3  2  2    -5.8672699503e-01
 3  2  3     5.8672699503e-01
 3  3  1     0.0000000000e+00
 3  3  2     4.1369969805e-01
 3  3  3    -3.2010235608e-01

   17
0.0000000000e+00 0.0000000000e+00 0.0000000000e+00
3.9800740976e+00 -1.9900370488e+00 -1.9900370488e+00
     1      1      2
 1  1  1    -4.4982040879e+00
 1  1  2     0.0000000000e+00
 1  1  3     0.0000000000e+00
 1  2  1     0.0000000000e+00
 1  2  2    -1.7422932007e-01
 1  2  3     0.0000000000e+00
 1  3  1     0.0000000000e+00
 1  3  2     0.0000000000e+00
 1  3  3    -1.7422932007e-01
 2  1  1     0.0000000000e+00
 2  1  2    -1.7422932007e-01
 2  1  3     0.0000000000e+00
 2  2  1     3.5815816592e-01
 2  2  2     0.0000000000e+00
 2  2  3     0.0000000000e+00
 2  3  1     0.0000000000e+00
 2  3  2     0.0000000000e+00
 2  3  3     0.0000000000e+00
 3  1  1     0.0000000000e+00
 3  1  2     0.0000000000e+00
 3  1  3    -1.7422932007e-01
 3  2  1     0.0000000000e+00
 3  2  2     0.0000000000e+00
 3  2  3     0.0000000000e+00
 3  3  1     3.5815816592e-01
 3  3  2     0.0000000000e+00
 3  3  3     0.0000000000e+00

   18
0.0000000000e+00 0.0000000000e+00 0.0000000000e+00
1.9900370488e+00 -3.1345708053e-16 1.9900370488e+00
     1      1      1
 1  1  1    -3.2010235608e-01
 1  1  2     0.0000000000e+00
 1  1  3    -4.1369969805e-01
 1  2  1     0.0000000000e+00
 1  2  2     1.6084275607e-01
 1  2  3     0.0000000000e+00
 1  3  1    -5.8672699503e-01
 1  3  2     0.0000000000e+00
 1  3  3    -5.8672699503e-01
 2  1  1     0.0000000000e+00
 2  1  2     1.6084275607e-01
 2  1  3     0.0000000000e+00
 2  2  1     1.7149648503e-01
 2  2  2     0.0000000000e+00
 2  2  3     1.7149648503e-01
 2  3  1     0.0000000000e+00
 2  3  2     1.6084275607e-01
 2  3  3     0.0000000000e+00
 3  1  1    -5.8672699503e-01
 3  1  2     0.0000000000e+00
 3  1  3    -5.8672699503e-01
 3  2  1     0.0000000000e+00
 3  2  2     1.6084275607e-01
 3  2  3     0.0000000000e+00
 3  3  1    -4.1369969805e-01
 3  3  2     0.0000000000e+00
 3  3  3    -3.2010235608e-01

   19
0.0000000000e+00 0.0000000000e+00 0.0000000000e+00
1.9900370488e+00 -3.9800740976e+00 -1.9900370488e+00
     1      1      2
 1  1  1     0.0000000000e+00
 1  1  2    -3.5815816592e-01
 1  1  3     0.0000000000e+00
 1  2  1     1.7422932007e-01
 1  2  2     0.0000000000e+00
 1  2  3     0.0000000000e+00
 1  3  1     0.0000000000e+00
 1  3  2     0.0000000000e+00
 1  3  3     0.0000000000e+00
 2  1  1     1.7422932007e-01
 2  1  2     0.0000000000e+00
 2  1  3     0.0000000000e+00
 2  2  1     0.0000000000e+00
 2  2  2     4.4982040879e+00
 2  2  3     0.0000000000e+00
 2  3  1     0.0000000000e+00
 2  3  2     0.0000000000e+00
 2  3  3     1.7422932007e-01
 3  1  1     0.0000000000e+00
 3  1  2     0.0000000000e+00
 3  1  3     0.0000000000e+00
 3  2  1     0.0000000000e+00
 3  2  2     0.0000000000e+00
 3  2  3     1.7422932007e-01
 3  3  1     0.0000000000e+00
 3  3  2    -3.5815816592e-01
 3  3  3     0.0000000000e+00

   20
-1.9900370488e+00 0.0000000000e+00 1.9900370488e+00
0.0000000000e+00 0.0000000000e+00 0.0000000000e+00
     1      1      1
 1  1  1     3.2010235608e-01
 1  1  2     0.0000000000e+00
 1  1  3    -5.8672699503e-01
 1  2  1     0.0000000000e+00
 1  2  2    -1.6084275607e-01
 1  2  3     0.0000000000e+00
 1  3  1    -4.1369969805e-01
 1  3  2     0.0000000000e+00
 1  3  3     5.8672699503e-01
 2  1  1     0.0000000000e+00
 2  1  2    -1.7149648503e-01
 2  1  3     0.0000000000e+00
 2  2  1    -1.6084275607e-01
 2  2  2     0.0000000000e+00
 2  2  3     1.6084275607e-01
 2  3  1     0.0000000000e+00
 2  3  2     1.7149648503e-01
 2  3  3     0.0000000000e+00
 3  1  1    -5.8672699503e-01
 3  1  2     0.0000000000e+00
 3  1  3     4.1369969805e-01
 3  2  1     0.0000000000e+00
 3  2  2     1.6084275607e-01
 3  2  3     0.0000000000e+00
 3  3  1     5.8672699503e-01
 3  3  2     0.0000000000e+00
 3  3  3    -3.2010235608e-01

   21
-1.9900370488e+00 0.0000000000e+00 1.9900370488e+00
-1.9900370488e+00 0.0000000000e+00 1.9900370488e+00
     1      1      1
 1  1  1    -3.2010235608e-01
 1  1  2     0.0000000000e+00
 1  1  3     5.8672699503e-01
 1  2  1     0.0000000000e+00
 1  2  2     1.7149648503e-01
 1  2  3     0.0000000000e+00
 1  3  1     5.8672699503e-01
 1  3  2     0.0000000000e+00
 1  3  3    -4.1369969805e-01
 2  1  1     0.0000000000e+00
 2  1  2     1.6084275607e-01
 2  1  3     0.0000000000e+00
 2  2  1     1.6084275607e-01
 2  2  2     0.0000000000e+00
 2  2  3    -1.6084275607e-01
 2  3  1     0.0000000000e+00
 2  3  2    -1.6084275607e-01
 2  3  3     0.0000000000e+00
 3  1  1     4.1369969805e-01
 3  1  2     0.0000000000e+00
 3  1  3    -5.8672699503e-01
 3  2  1     0.0000000000e+00
 3  2  2    -1.7149648503e-01
 3  2  3     0.0000000000e+00
 3  3  1    -5.8672699503e-01
 3  3  2     0.0000000000e+00
 3  3  3     3.2010235608e-01

   22
-1.9900370488e+00 0.0000000000e+00 1.9900370488e+00
0.0000000000e+00 1.9900370488e+00 1.9900370488e+00
     1      1      1
 1  1  1     3.2138790771e-03
 1  1  2    -1.2930402621e-02
 1  1  3    -6.4606067021e-03
 1  2  1    -6.4418851240e-03
 1  2  2    -6.4606067021e-03
 1  2  3    -8.9988614159e-03
 1  3  1     6.4418851240e-03
 1  3  2     1.2855516308e-02
 1  3  3     6.4418851240e-03
 2  1  1     6.4606067021e-03
 2  1  2     1.2930402621e-02
 2  1  3     1.2855516308e-02
 2  2  1     6.4418851240e-03
 2  2  2    -3.2138790771e-03
 2  2  3     6.4418851240e-03
 2  3  1    -8.9988614159e-03
 2  3  2    -6.4606067021e-03
 2  3  3    -6.4418851240e-03
 3  1  1     1.2930402621e-02
 3  1  2    -8.3560856004e-03
 3  1  3     1.2930402621e-02
 3  2  1     1.2855516308e-02
 3  2  2     1.2930402621e-02
 3  2  3     6.4606067021e-03
 3  3  1    -6.4606067021e-03
 3  3  2    -1.2930402621e-02
 3  3  3     3.2138790771e-03

   23
-1.9900370488e+00 0.0000000000e+00 1.9900370488e+00
0.0000000000e+00 -1.9900370488e+00 -1.9900370488e+00
     1      1      2
 1  1  1     3.8564340716e-03
 1  1  2     0.0000000000e+00
 1  1  3     9.3030640444e-02
 1  2  1     0.0000000000e+00
 1  2  2    -1.1779629377e-02
 1  2  3     0.0000000000e+00
 1  3  1    -1.9242113911e-01
 1  3  2     0.0000000000e+00
 1  3  3    -1.9242113911e-01
 2  1  1     0.0000000000e+00
 2  1  2    -3.9907919061e-02
 2  1  3     0.0000000000e+00
 2  2  1    -6.7155474819e-02
 2  2  2     0.0000000000e+00
 2  2  3    -6.7155474819e-02
 2  3  1     0.0000000000e+00
 2  3  2    -1.1779629377e-02
 2  3  3     0.0000000000e+00
 3  1  1    -3.2370877127e-02
 3  1  2     0.0000000000e+00
 3  1  3    -3.2370877127e-02
 3  2  1     0.0000000000e+00
 3  2  2    -3.9907919061e-02
 3  2  3     0.0000000000e+00
 3  3  1     9.3030640444e-02
 3  3  2     0.0000000000e+00
 3  3  3     3.8564340716e-03

   24
-1.9900370488e+00 0.0000000000e+00 1.9900370488e+00
-1.9900370488e+00 -1.9900370488e+00 -3.1345708053e-16
     1      1      1
 1  1  1    -3.2138790771e-03
 1  1  2     1.2930402621e-02
 1  1  3     6.4606067021e-03
 1  2  1    -6.4606067021e-03
 1  2  2    -1.2930402621e-02
 1  2  3    -1.2855516308e-02
 1  3  1    -1.2930402621e-02
 1  3  2     8.3560856004e-03
 1  3  3    -1.2930402621e-02
 2  1  1     6.4418851240e-03
 2  1  2     6.4606067021e-03
 2  1  3     8.9988614159e-03
 2  2  1    -6.4418851240e-03
 2  2  2     3.2138790771e-03
 2  2  3    -6.4418851240e-03
 2  3  1    -1.2855516308e-02
 2  3  2    -1.2930402621e-02
 2  3  3    -6.4606067021e-03
 3  1  1    -6.4418851240e-03
 3  1  2    -1.2855516308e-02
 3  1  3    -6.4418851240e-03
 3  2  1     8.9988614159e-03
 3  2  2     6.4606067021e-03
 3  2  3     6.4418851240e-03
 3  3  1     6.4606067021e-03
 3  3  2     1.2930402621e-02
 3  3  3    -3.2138790771e-03

   25
-1.9900370488e+00 0.0000000000e+00 1.9900370488e+00
-1.9900370488e+00 1.9900370488e+00 0.0000000000e+00
     1      1      1
 1  1  1    -3.2138790771e-03
 1  1  2    -1.2930402621e-02
 1  1  3     6.4606067021e-03
 1  2  1     6.4606067021e-03
 1  2  2    -1.2930402621e-02
 1  2  3     1.2855516308e-02
 1  3  1    -1.2930402621e-02
 1  3  2    -8.3560856004e-03
 1  3  3    -1.2930402621e-02
 2  1  1    -6.4418851240e-03
 2  1  2     6.4606067021e-03
 2  1  3    -8.9988614159e-03
 2  2  1    -6.4418851240e-03
 2  2  2    -3.2138790771e-03
 2  2  3    -6.4418851240e-03
 2  3  1     1.2855516308e-02
 2  3  2    -1.2930402621e-02
 2  3  3     6.4606067021e-03
 3  1  1    -6.4418851240e-03
 3  1  2     1.2855516308e-02
 3  1  3    -6.4418851240e-03
 3  2  1    -8.9988614159e-03
 3  2  2     6.4606067021e-03
 3  2  3    -6.4418851240e-03
 3  3  1     6.4606067021e-03
 3  3  2    -1.2930402621e-02
 3  3  3    -3.2138790771e-03

   26
-1.9900370488e+00 0.0000000000e+00 1.9900370488e+00
1.9900370488e+00 -1.9900370488e+00 0.0000000000e+00
     1      1      2
 1  1  1    -3.8564340716e-03
 1  1  2     0.0000000000e+00
 1  1  3    -9.3030640444e-02
 1  2  1     0.0000000000e+00
 1  2  2     3.9907919061e-02
 1  2  3     0.0000000000e+00
 1  3  1     3.2370877127e-02
 1  3  2     0.0000000000e+00
 1  3  3     3.2370877127e-02
 2  1  1     0.0000000000e+00
 2  1  2     1.1779629377e-02
 2  1  3     0.0000000000e+00
 2  2  1     6.7155474819e-02
 2  2  2     0.0000000000e+00
 2  2  3     6.7155474819e-02
 2  3  1     0.0000000000e+00
 2  3  2     3.9907919061e-02
 2  3  3     0.0000000000e+00
 3  1  1     1.9242113911e-01
 3  1  2     0.0000000000e+00
 3  1  3     1.9242113911e-01
 3  2  1     0.0000000000e+00
 3  2  2     1.1779629377e-02
 3  2  3     0.0000000000e+00
 3  3  1    -9.3030640444e-02
 3  3  2     0.0000000000e+00
 3  3  3    -3.8564340716e-03

   27
-1.9900370488e+00 0.0000000000e+00 1.9900370488e+00
3.1345708053e-16 -1.9900370488e+00 1.9900370488e+00
     1      1      1
 1  1  1     3.2138790771e-03
 1  1  2     1.2930402621e-02
 1  1  3    -6.4606067021e-03
 1  2  1     6.4418851240e-03
 1  2  2    -6.4606067021e-03
 1  2  3     8.9988614159e-03
 1  3  1     6.4418851240e-03
 1  3  2    -1.2855516308e-02
 1  3  3     6.4418851240e-03
 2  1  1    -6.4606067021e-03
 2  1  2     1.2930402621e-02
 2  1  3    -1.2855516308e-02
 2  2  1     6.4418851240e-03
 2  2  2     3.2138790771e-03
 2  2  3     6.4418851240e-03
 2  3  1     8.9988614159e-03
 2  3  2    -6.4606067021e-03
 2  3  3     6.4418851240e-03
 3  1  1     1.2930402621e-02
 3  1  2     8.3560856004e-03
 3  1  3     1.2930402621e-02
 3  2  1    -1.2855516308e-02
 3  2  2     1.2930402621e-02
 3  2  3    -6.4606067021e-03
 3  3  1    -6.4606067021e-03
 3  3  2     1.2930402621e-02
 3  3  3     3.2138790771e-03

   28
1.9900370488e+00 0.0000000000e+00 -1.9900370488e+00
0.0000000000e+00 0.0000000000e+00 0.0000000000e+00
     1      1      1
 1  1  1    -3.2010235608e-01
 1  1  2     0.0000000000e+00
 1  1  3     5.8672699503e-01
 1  2  1     0.0000000000e+00
 1  2  2     1.6084275607e-01
 1  2  3     0.0000000000e+00
 1  3  1     4.1369969805e-01
 1  3  2     0.0000000000e+00
 1  3  3    -5.8672699503e-01
 2  1  1     0.0000000000e+00
 2  1  2     1.7149648503e-01
 2  1  3     0.0000000000e+00
 2  2  1     1.6084275607e-01
 2  2  2     0.0000000000e+00
 2  2  3    -1.6084275607e-01
 2  3  1     0.0000000000e+00
 2  3  2    -1.7149648503e-01
 2  3  3     0.0000000000e+00
 3  1  1     5.8672699503e-01
 3  1  2     0.0000000000e+00
 3  1  3    -4.1369969805e-01
 3  2  1     0.0000000000e+00
 3  2  2    -1.6084275607e-01
 3  2  3     0.0000000000e+00
 3  3  1    -5.8672699503e-01
 3  3  2     0.0000000000e+00
 3  3  3     3.2010235608e-01

   29
1.9900370488e+00 0.0000000000e+00 -1.9900370488e+00
1.9900370488e+00 0.0000000000e+00 -1.9900370488e+00
     1      1      1
 1  1  1     3.2010235608e-01
 1  1  2     0.0000000000e+00
 1  1  3    -5.8672699503e-01
 1  2  1     0.0000000000e+00
 1  2  2    -1.7149648503e-01
 1  2  3     0.0000000000e+00
 1  3  1    -5.8672699503e-01
 1  3  2     0.0000000000e+00
 1  3  3     4.1369969805e-01
 2  1  1     0.0000000000e+00
 2  1  2    -1.6084275607e-01
 2  1  3     0.0000000000e+00
 2  2  1    -1.6084275607e-01
 2  2  2     0.0000000000e+00
 2  2  3     1.6084275607e-01
 2  3  1     0.0000000000e+00
 2  3  2     1.6084275607e-01
 2  3  3     0.0000000000e+00
 3  1  1    -4.1369969805e-01
 3  1  2     0.0000000000e+00
 3  1  3     5.8672699503e-01
 3  2  1     0.0000000000e+00
 3  2  2     1.7149648503e-01
 3  2  3     0.0000000000e+00
 3  3  1     5.8672699503e-01
 3  3  2     0.0000000000e+00
 3  3  3    -3.2010235608e-01

   30
1.9900370488e+00 0.0000000000e+00 -1.9900370488e+00
1.9900370488e+00 1.9900370488e+00 -2.9550641834e-16
     1      1      1
 1  1  1     3.2138790771e-03
 1  1  2    -1.2930402621e-02
 1  1  3    -6.4606067021e-03
 1  2  1     6.4606067021e-03
 1  2  2     1.2930402621e-02
 1  2  3     1.2855516308e-02
 1  3  1     1.2930402621e-02
 1  3  2    -8.3560856004e-03
 1  3  3     1.2930402621e-02
 2  1  1    -6.4418851240e-03
 2  1  2    -6.4606067021e-03
 2  1  3    -8.9988614159e-03
 2  2  1     6.4418851240e-03
 2  2  2    -3.2138790771e-03
 2  2  3     6.4418851240e-03
 2  3  1     1.2855516308e-02
 2  3  2     1.2930402621e-02
 2  3  3     6.4606067021e-03
 3  1  1     6.4418851240e-03
 3  1  2     1.2855516308e-02
 3  1  3     6.4418851240e-03
 3  2  1    -8.9988614159e-03
 3  2  2    -6.4606067021e-03
 3  2  3    -6.4418851240e-03
 3  3  1    -6.4606067021e-03
 3  3  2    -1.2930402621e-02
 3  3  3     3.2138790771e-03

   31
1.9900370488e+00 0.0000000000e+00 -1.9900370488e+00
0.0000000000e+00 -1.9900370488e+00 -1.9900370488e+00
     1      1      1
 1  1  1    -3.2138790771e-03
 1  1  2     1.2930402621e-02
 1  1  3     6.4606067021e-03
 1  2  1     6.4418851240e-03
 1  2  2     6.4606067021e-03
 1  2  3     8.9988614159e-03
 1  3  1    -6.4418851240e-03
 1  3  2    -1.2855516308e-02
 1  3  3    -6.4418851240e-03
 2  1  1    -6.4606067021e-03
 2  1  2    -1.2930402621e-02
 2  1  3    -1.2855516308e-02
 2  2  1    -6.4418851240e-03
 2  2  2     3.2138790771e-03
 2  2  3    -6.4418851240e-03
 2  3  1     8.9988614159e-03
 2  3  2     6.4606067021e-03
 2  3  3     6.4418851240e-03
 3  1  1    -1.2930402621e-02
 3  1  2     8.3560856004e-03
 3  1  3    -1.2930402621e-02
 3  2  1    -1.2855516308e-02
 3  2  2    -1.2930402621e-02
 3  2  3    -6.4606067021e-03
 3  3  1     6.4606067021e-03
 3  3  2     1.2930402621e-02
 3  3  3    -3.2138790771e-03

   32
1.9900370488e+00 0.0000000000e+00 -1.9900370488e+00
1.9900370488e+00 -1.9900370488e+00 -3.9800740976e+00
     1      1      2
 1  1  1     3.8564340716e-03
 1  1  2     0.0000000000e+00
 1  1  3     9.3030640444e-02
 1  2  1     0.0000000000e+00
 1  2  2    -3.9907919061e-02
 1  2  3     0.0000000000e+00
 1  3  1    -3.2370877127e-02
 1  3  2     0.0000000000e+00
 1  3  3    -3.2370877127e-02
 2  1  1     0.0000000000e+00
 2  1  2    -1.1779629377e-02
 2  1  3     0.0000000000e+00
 2  2  1    -6.7155474819e-02
 2  2  2     0.0000000000e+00
 2  2  3    -6.7155474819e-02
 2  3  1     0.0000000000e+00
 2  3  2    -3.9907919061e-02
 2  3  3     0.0000000000e+00
 3  1  1    -1.9242113911e-01
 3  1  2     0.0000000000e+00
 3  1  3    -1.9242113911e-01
 3  2  1     0.0000000000e+00